/*--------------------------------*- C++ -*----------------------------------*\
| =========                 |                                                 |
| \\      /  F ield         | OpenFOAM: The Open Source CFD Toolbox           |
|  \\    /   O peration     | Version:  v1906                                 |
|   \\  /    A nd           | Web:      www.OpenFOAM.com                      |
|    \\/     M anipulation  |                                                 |
\*---------------------------------------------------------------------------*/
FoamFile
{
    version     2.0;
    format      ascii;
    class       volScalarField;
    location    "325";
    object      epsilon;
}
// * * * * * * * * * * * * * * * * * * * * * * * * * * * * * * * * * * * * * //

dimensions      [0 2 -3 0 0 0 0];


internalField   nonuniform List<scalar> 
171728
(
3.27668e-09
4.71954e-09
3.3551e-09
5.08217e-09
3.24399e-09
4.31756e-09
3.10725e-09
4.61397e-09
3.20096e-09
3.94275e-09
2.89394e-09
4.23721e-09
3.16332e-09
3.61823e-09
2.71237e-09
3.93423e-09
3.13033e-09
3.33342e-09
2.56714e-09
3.68925e-09
3.10143e-09
3.08871e-09
2.45365e-09
3.48438e-09
3.07548e-09
2.88773e-09
2.37615e-09
3.30785e-09
3.05339e-09
2.7328e-09
2.32534e-09
3.08959e-09
3.03607e-09
2.61405e-09
2.30227e-09
2.80767e-09
3.02398e-09
2.53191e-09
2.30612e-09
2.64474e-09
3.01477e-09
2.49361e-09
2.3476e-09
2.48283e-09
3.01006e-09
2.49931e-09
2.43009e-09
2.34381e-09
3.01059e-09
2.55202e-09
2.56864e-09
2.30296e-09
3.01658e-09
2.66049e-09
2.76686e-09
2.33589e-09
3.02885e-09
2.84655e-09
3.04328e-09
2.45704e-09
3.0465e-09
3.15173e-09
3.40569e-09
2.7088e-09
3.06995e-09
3.63136e-09
4.00256e-09
3.14897e-09
3.09871e-09
4.37764e-09
4.98008e-09
3.9274e-09
3.13456e-09
5.49668e-09
6.49518e-09
5.26988e-09
3.17966e-09
7.1603e-09
8.48529e-09
7.37425e-09
3.23812e-09
9.8031e-09
1.12331e-08
1.1409e-08
3.31329e-09
1.3131e-08
1.42159e-08
1.90592e-08
3.41252e-09
1.79284e-08
1.91782e-08
2.85726e-08
3.54745e-09
2.49703e-08
2.63745e-08
4.83969e-08
3.72117e-09
3.38979e-08
3.38038e-08
7.38573e-08
3.97974e-09
4.47635e-08
4.52687e-08
1.124e-07
4.29212e-09
5.94552e-08
5.96052e-08
1.61809e-07
4.7571e-09
7.48514e-08
7.4356e-08
2.23679e-07
5.32727e-09
9.72903e-08
9.64662e-08
2.92346e-07
6.11568e-09
1.19347e-07
1.18008e-07
3.73994e-07
7.19192e-09
1.43328e-07
1.44467e-07
4.48803e-07
8.43331e-09
1.8062e-07
1.73618e-07
5.23969e-07
1.02991e-08
2.05489e-07
2.0704e-07
6.0112e-07
1.22981e-08
2.41945e-07
2.40783e-07
6.54085e-07
1.51409e-08
2.79893e-07
2.87624e-07
7.16727e-07
1.8711e-08
3.24664e-07
3.19273e-07
7.6831e-07
2.36032e-08
3.63503e-07
3.7193e-07
8.10316e-07
2.81517e-08
4.10222e-07
4.22224e-07
8.527e-07
3.45934e-08
4.60653e-07
4.50635e-07
8.89604e-07
4.288e-08
5.0882e-07
5.12452e-07
9.21959e-07
5.19101e-08
5.43529e-07
5.58058e-07
9.56852e-07
6.11471e-08
6.20583e-07
6.08538e-07
9.94466e-07
7.59974e-08
6.63495e-07
6.48237e-07
1.01524e-06
8.68121e-08
6.94625e-07
7.00572e-07
1.04469e-06
1.0587e-07
7.42901e-07
7.49322e-07
1.08036e-06
1.24143e-07
7.89123e-07
7.87787e-07
1.10206e-06
1.42494e-07
8.34804e-07
8.36236e-07
1.13103e-06
1.67135e-07
8.63597e-07
8.66757e-07
1.15519e-06
1.86077e-07
9.15488e-07
9.06624e-07
1.18444e-06
2.22269e-07
9.49584e-07
9.51282e-07
1.21261e-06
2.44084e-07
9.67313e-07
9.7092e-07
1.22461e-06
2.69862e-07
1.00639e-06
1.00553e-06
1.2528e-06
3.03503e-07
1.03276e-06
1.03535e-06
1.27593e-06
3.35211e-07
1.06119e-06
1.05485e-06
1.29193e-06
3.5779e-07
1.07927e-06
1.08323e-06
1.31076e-06
3.93865e-07
1.10479e-06
1.09963e-06
1.32791e-06
4.2281e-07
1.12419e-06
1.12734e-06
1.34659e-06
4.52381e-07
1.14328e-06
1.13777e-06
1.35669e-06
4.79092e-07
1.15771e-06
1.16318e-06
1.37769e-06
5.08394e-07
1.17987e-06
1.17468e-06
1.38852e-06
5.34053e-07
1.18554e-06
1.19119e-06
1.40048e-06
5.57545e-07
1.20394e-06
1.19987e-06
1.41309e-06
5.76276e-07
1.21672e-06
1.21774e-06
1.42479e-06
5.99086e-07
1.22308e-06
1.22721e-06
1.43483e-06
6.20007e-07
1.23431e-06
1.23466e-06
1.43832e-06
6.3366e-07
1.23881e-06
1.24147e-06
1.44779e-06
6.5145e-07
1.25155e-06
1.25201e-06
1.45589e-06
6.6582e-07
1.2523e-06
1.25128e-06
1.45749e-06
6.72998e-07
1.24944e-06
1.24884e-06
1.45088e-06
6.95257e-07
1.2743e-06
1.27508e-06
1.48582e-06
7.14186e-07
1.28288e-06
1.28311e-06
1.50169e-06
7.01196e-07
1.24359e-06
1.2433e-06
1.45723e-06
6.69836e-07
1.19415e-06
1.19399e-06
1.39024e-06
6.64738e-07
1.19371e-06
1.1936e-06
1.39253e-06
7.04395e-07
1.24612e-06
1.24602e-06
1.45978e-06
7.62226e-07
1.31222e-06
1.31214e-06
1.54364e-06
7.97191e-07
1.36005e-06
1.36003e-06
1.61102e-06
7.95483e-07
1.35302e-06
1.35306e-06
1.60674e-06
7.43849e-07
1.27257e-06
1.27264e-06
1.50386e-06
6.86975e-07
1.19236e-06
1.19242e-06
1.39578e-06
6.5842e-07
1.15041e-06
1.15045e-06
1.34516e-06
6.55876e-07
1.14238e-06
1.14242e-06
1.34603e-06
6.71485e-07
1.15433e-06
1.15438e-06
1.3711e-06
6.76893e-07
1.16108e-06
1.16115e-06
1.39059e-06
6.74337e-07
1.16177e-06
1.16183e-06
1.40031e-06
6.71572e-07
1.16089e-06
1.16096e-06
1.40411e-06
6.70116e-07
1.16012e-06
1.16019e-06
1.40554e-06
6.69353e-07
1.15967e-06
1.15974e-06
1.4058e-06
6.68962e-07
1.15939e-06
1.15945e-06
1.40559e-06
6.68893e-07
1.15938e-06
1.15945e-06
1.40572e-06
6.68875e-07
1.1594e-06
1.15947e-06
1.40585e-06
6.68859e-07
1.15938e-06
1.15945e-06
1.40558e-06
6.68861e-07
1.15944e-06
1.1595e-06
1.40582e-06
6.6862e-07
1.15915e-06
1.1592e-06
1.40537e-06
6.50853e-07
1.10472e-06
1.10471e-06
1.364e-06
5.1394e-09
4.43982e-09
4.15194e-09
4.81544e-09
4.2294e-09
4.38958e-09
3.27012e-09
3.25116e-09
3.22309e-09
3.41517e-09
4.21579e-09
5.03312e-09
5.14799e-09
4.0463e-09
4.28947e-09
5.12333e-09
5.11371e-09
4.67793e-09
4.78709e-09
5.04115e-09
4.46742e-09
4.62225e-09
4.78635e-09
4.39405e-09
4.64906e-09
4.8395e-09
4.33696e-09
4.5216e-09
5.93941e-09
4.41998e-09
5.70952e-09
5.13233e-09
4.681e-09
4.7361e-09
3.16853e-09
4.4185e-09
4.6871e-09
4.64569e-09
4.25285e-09
4.35797e-09
4.46088e-09
4.0539e-09
4.00669e-09
4.36171e-09
4.01566e-09
4.23019e-09
4.41111e-09
3.93393e-09
4.1019e-09
5.63519e-09
4.03151e-09
5.44857e-09
4.6516e-09
4.23182e-09
4.31124e-09
2.94405e-09
4.01513e-09
4.29763e-09
4.22506e-09
3.88759e-09
3.95941e-09
3.87576e-09
3.69797e-09
3.54044e-09
3.98808e-09
3.6802e-09
3.84331e-09
4.0061e-09
3.5927e-09
3.73942e-09
5.39529e-09
3.69547e-09
5.25271e-09
4.20651e-09
3.84966e-09
3.9242e-09
2.75405e-09
3.67239e-09
3.9841e-09
3.86439e-09
3.57655e-09
3.6164e-09
3.44578e-09
3.3915e-09
3.20504e-09
3.6566e-09
3.38133e-09
3.51547e-09
3.65659e-09
3.30073e-09
3.42598e-09
5.20694e-09
3.40112e-09
5.07999e-09
3.8278e-09
3.51963e-09
3.5964e-09
2.60072e-09
3.38498e-09
3.73095e-09
3.55674e-09
3.3045e-09
3.32189e-09
3.13656e-09
3.13146e-09
2.95482e-09
3.36067e-09
3.11904e-09
3.23472e-09
3.35399e-09
3.05201e-09
3.15684e-09
5.03732e-09
3.14532e-09
4.90263e-09
3.5012e-09
3.22891e-09
3.31578e-09
2.47826e-09
3.11404e-09
3.51959e-09
3.28824e-09
3.06524e-09
3.07283e-09
2.90056e-09
2.91659e-09
2.76122e-09
3.1023e-09
2.89469e-09
2.99658e-09
3.09636e-09
2.84908e-09
2.93327e-09
4.8597e-09
2.93322e-09
4.73421e-09
3.21388e-09
2.97888e-09
3.05102e-09
2.39278e-09
2.88455e-09
3.3241e-09
3.0525e-09
2.85976e-09
2.8702e-09
2.7204e-09
2.74669e-09
2.61455e-09
2.88165e-09
2.70954e-09
2.80522e-09
2.88411e-09
2.68908e-09
2.75592e-09
4.68323e-09
2.76733e-09
4.45229e-09
2.96796e-09
2.77768e-09
2.83633e-09
2.33418e-09
2.71259e-09
3.11083e-09
2.85083e-09
2.69236e-09
2.71103e-09
2.58353e-09
2.61845e-09
2.50453e-09
2.70088e-09
2.56255e-09
2.655e-09
2.71834e-09
2.56973e-09
2.62438e-09
4.34182e-09
2.6411e-09
3.90522e-09
2.77047e-09
2.61952e-09
2.6766e-09
2.30657e-09
2.58779e-09
2.82136e-09
2.68746e-09
2.56135e-09
2.59333e-09
2.48311e-09
2.53193e-09
2.43681e-09
2.55795e-09
2.44838e-09
2.54547e-09
2.59792e-09
2.48911e-09
2.536e-09
3.74266e-09
2.54817e-09
3.27466e-09
2.61605e-09
2.49837e-09
2.56444e-09
2.30279e-09
2.51088e-09
2.65053e-09
2.56066e-09
2.46797e-09
2.5167e-09
2.42604e-09
2.4856e-09
2.40608e-09
2.44798e-09
2.36686e-09
2.47457e-09
2.52096e-09
2.44767e-09
2.49028e-09
3.13526e-09
2.49849e-09
2.7765e-09
2.49879e-09
2.41478e-09
2.49822e-09
2.33366e-09
2.46977e-09
2.48793e-09
2.47117e-09
2.41094e-09
2.48103e-09
2.40362e-09
2.48071e-09
2.41106e-09
2.37018e-09
2.31905e-09
2.44246e-09
2.48482e-09
2.44585e-09
2.48724e-09
2.67464e-09
2.49428e-09
2.42559e-09
2.41865e-09
2.36932e-09
2.46535e-09
2.40475e-09
2.46312e-09
2.33937e-09
2.41963e-09
2.39239e-09
2.48493e-09
2.41858e-09
2.51937e-09
2.45802e-09
2.32848e-09
2.30857e-09
2.45217e-09
2.49336e-09
2.48967e-09
2.528e-09
2.36229e-09
2.53318e-09
2.25747e-09
2.37916e-09
2.36204e-09
2.46682e-09
2.52892e-09
2.49634e-09
2.28723e-09
2.41111e-09
2.42293e-09
2.53669e-09
2.47943e-09
2.61507e-09
2.5625e-09
2.32789e-09
2.3484e-09
2.50871e-09
2.54569e-09
2.58876e-09
2.62505e-09
2.24992e-09
2.62782e-09
2.26123e-09
2.38172e-09
2.40571e-09
2.51232e-09
2.71018e-09
2.58976e-09
2.30475e-09
2.45524e-09
2.52073e-09
2.64783e-09
2.59824e-09
2.78311e-09
2.73994e-09
2.38007e-09
2.45655e-09
2.62248e-09
2.65941e-09
2.76062e-09
2.79402e-09
2.29166e-09
2.79002e-09
2.45358e-09
2.43899e-09
2.51715e-09
2.6244e-09
2.96771e-09
2.76126e-09
2.40204e-09
2.57633e-09
2.72303e-09
2.83862e-09
2.80085e-09
3.06018e-09
3.02427e-09
2.51402e-09
2.67076e-09
2.8157e-09
2.85456e-09
3.03827e-09
3.07498e-09
2.51437e-09
3.06178e-09
2.72356e-09
2.57513e-09
2.73501e-09
2.81983e-09
3.3047e-09
3.03518e-09
2.61482e-09
2.81623e-09
3.08832e-09
3.15048e-09
3.11491e-09
3.4923e-09
3.45859e-09
2.76584e-09
3.04441e-09
3.13032e-09
3.16679e-09
3.47084e-09
3.51523e-09
2.81589e-09
3.49181e-09
3.17375e-09
2.8328e-09
3.12941e-09
3.13181e-09
3.81891e-09
3.47292e-09
2.99521e-09
3.23933e-09
3.74237e-09
3.63352e-09
3.59973e-09
4.1667e-09
4.14764e-09
3.20008e-09
3.71598e-09
3.61295e-09
3.65419e-09
4.12679e-09
4.21665e-09
3.32491e-09
4.17266e-09
3.88239e-09
3.28936e-09
3.87215e-09
3.61575e-09
4.70679e-09
4.1534e-09
3.66467e-09
3.97844e-09
4.96449e-09
4.36702e-09
4.35788e-09
5.23689e-09
5.16204e-09
3.96254e-09
4.85457e-09
4.3287e-09
4.433e-09
5.20629e-09
5.23506e-09
4.09016e-09
5.18146e-09
4.93236e-09
4.13501e-09
5.14112e-09
4.36683e-09
6.13026e-09
5.18795e-09
4.78136e-09
5.40486e-09
6.84814e-09
5.55345e-09
5.48538e-09
6.73044e-09
6.74532e-09
5.2615e-09
6.97488e-09
5.53325e-09
5.59216e-09
6.69334e-09
6.79134e-09
5.29321e-09
6.73036e-09
6.4e-09
5.59756e-09
7.24562e-09
5.54302e-09
7.91723e-09
6.63441e-09
6.66398e-09
7.56908e-09
1.05204e-08
7.19868e-09
7.17635e-09
9.04528e-09
9.04048e-09
7.64964e-09
1.03838e-08
7.15897e-09
7.21594e-09
9.0242e-09
9.06011e-09
6.93143e-09
8.99623e-09
8.76975e-09
7.92985e-09
1.08654e-08
7.15503e-09
1.04716e-08
8.97053e-09
1.04427e-08
1.17608e-08
1.64824e-08
9.73711e-09
9.84854e-09
1.22869e-08
1.21611e-08
1.19043e-08
1.62445e-08
9.71648e-09
9.76155e-09
1.22465e-08
1.23251e-08
9.39813e-09
1.21033e-08
1.21452e-08
1.21243e-08
1.67491e-08
9.58109e-09
1.33255e-08
1.22884e-08
1.66409e-08
1.85928e-08
2.65104e-08
1.33137e-08
1.32183e-08
1.68962e-08
1.67372e-08
1.78822e-08
2.70675e-08
1.32623e-08
1.3295e-08
1.6802e-08
1.68104e-08
1.32555e-08
1.66129e-08
1.64414e-08
1.84593e-08
2.69817e-08
1.34006e-08
1.79907e-08
1.65707e-08
2.62601e-08
2.96668e-08
4.24311e-08
1.83725e-08
1.80526e-08
2.2653e-08
2.3492e-08
2.9651e-08
4.50578e-08
1.82884e-08
1.80988e-08
2.25856e-08
2.32331e-08
1.77233e-08
2.32913e-08
2.30196e-08
3.00574e-08
4.33333e-08
1.78364e-08
2.44241e-08
2.30077e-08
4.33413e-08
4.61285e-08
7.2363e-08
2.46702e-08
2.51837e-08
3.20449e-08
3.14205e-08
5.04224e-08
6.58254e-08
2.45544e-08
2.53049e-08
3.1899e-08
3.10884e-08
2.4886e-08
3.11413e-08
3.11969e-08
4.87085e-08
6.67867e-08
2.48892e-08
3.13822e-08
3.11191e-08
6.74125e-08
7.92417e-08
9.80062e-08
3.40035e-08
3.42143e-08
4.18496e-08
4.20821e-08
7.31028e-08
1.05069e-07
3.38465e-08
3.35408e-08
4.18507e-08
4.2536e-08
3.38017e-08
4.18706e-08
4.21603e-08
7.15257e-08
1.05757e-07
3.37016e-08
4.26521e-08
4.20033e-08
1.04284e-07
1.08587e-07
1.55306e-07
4.55279e-08
4.50274e-08
5.62795e-08
5.60222e-08
1.1178e-07
1.52283e-07
4.55122e-08
4.54485e-08
5.58531e-08
5.53817e-08
4.51933e-08
5.56239e-08
5.55649e-08
1.14741e-07
1.48672e-07
4.50634e-08
5.55026e-08
5.5121e-08
1.50616e-07
1.63667e-07
2.09035e-07
5.96969e-08
5.97588e-08
7.07543e-08
7.07877e-08
1.63805e-07
2.06815e-07
5.9459e-08
5.974e-08
7.06702e-08
7.15474e-08
5.9404e-08
7.03408e-08
7.20019e-08
1.59671e-07
2.11821e-07
5.89364e-08
7.02505e-08
7.1948e-08
2.09909e-07
2.20513e-07
2.8301e-07
7.57892e-08
7.54194e-08
9.19846e-08
9.25285e-08
2.19669e-07
2.81515e-07
7.55255e-08
7.53284e-08
9.16898e-08
9.19422e-08
7.64309e-08
9.21882e-08
9.07277e-08
2.2352e-07
2.74784e-07
7.62051e-08
9.11424e-08
9.0295e-08
2.78653e-07
3.0077e-07
3.49543e-07
9.65357e-08
9.75005e-08
1.11913e-07
1.13043e-07
2.97174e-07
3.60877e-07
9.62735e-08
9.7562e-08
1.11915e-07
1.12721e-07
9.61311e-08
1.12593e-07
1.12983e-07
2.93754e-07
3.59591e-07
9.58461e-08
1.12251e-07
1.12311e-07
3.56526e-07
3.63479e-07
4.39951e-07
1.18428e-07
1.1994e-07
1.39071e-07
1.38504e-07
3.73572e-07
4.34959e-07
1.18427e-07
1.18805e-07
1.38922e-07
1.38642e-07
1.1926e-07
1.37831e-07
1.40064e-07
3.71218e-07
4.32473e-07
1.18553e-07
1.3722e-07
1.389e-07
4.33332e-07
4.5632e-07
5.08649e-07
1.46151e-07
1.43858e-07
1.67101e-07
1.7078e-07
4.53062e-07
5.13782e-07
1.45891e-07
1.45168e-07
1.675e-07
1.67485e-07
1.45839e-07
1.69952e-07
1.65558e-07
4.50937e-07
5.08364e-07
1.44965e-07
1.66415e-07
1.65438e-07
5.09772e-07
5.25563e-07
5.78875e-07
1.73695e-07
1.81555e-07
1.9916e-07
2.01437e-07
5.32949e-07
5.88176e-07
1.7431e-07
1.75374e-07
1.96841e-07
1.98634e-07
1.75183e-07
2.00789e-07
2.00846e-07
5.23533e-07
5.80203e-07
1.7418e-07
1.98629e-07
1.99349e-07
5.83714e-07
5.93732e-07
6.46535e-07
2.09566e-07
2.06192e-07
2.34764e-07
2.31516e-07
5.98179e-07
6.32442e-07
2.06893e-07
2.07062e-07
2.35984e-07
2.32207e-07
2.07833e-07
2.31123e-07
2.34709e-07
5.94845e-07
6.41129e-07
2.06736e-07
2.31115e-07
2.3347e-07
6.41144e-07
6.58877e-07
6.94657e-07
2.40738e-07
2.42335e-07
2.66509e-07
2.69982e-07
6.5038e-07
7.07564e-07
2.42734e-07
2.40661e-07
2.66937e-07
2.73923e-07
2.4431e-07
2.68645e-07
2.6887e-07
6.55693e-07
7.06472e-07
2.42996e-07
2.76189e-07
2.67962e-07
7.03725e-07
7.08093e-07
7.58143e-07
2.80052e-07
2.8132e-07
3.15287e-07
3.15741e-07
7.1875e-07
7.54184e-07
2.79159e-07
2.86346e-07
3.12091e-07
3.13649e-07
2.78942e-07
3.16106e-07
3.17748e-07
7.19909e-07
7.48976e-07
2.78117e-07
3.11965e-07
3.16466e-07
7.5522e-07
7.71496e-07
8.01019e-07
3.23399e-07
3.23781e-07
3.57078e-07
3.52403e-07
7.67296e-07
7.9813e-07
3.21351e-07
3.20112e-07
3.57284e-07
3.50774e-07
3.2873e-07
3.50221e-07
3.52303e-07
7.59272e-07
8.00256e-07
3.27216e-07
3.5584e-07
3.50629e-07
7.99975e-07
8.1147e-07
8.41022e-07
3.712e-07
3.66257e-07
4.02427e-07
4.01027e-07
8.08408e-07
8.39645e-07
3.70943e-07
3.67075e-07
4.00901e-07
4.10471e-07
3.62295e-07
4.0159e-07
4.04663e-07
8.14863e-07
8.46488e-07
3.6064e-07
4.13192e-07
4.03892e-07
8.41289e-07
8.50259e-07
8.75978e-07
4.09688e-07
4.09227e-07
4.42836e-07
4.45425e-07
8.50465e-07
8.83527e-07
4.07881e-07
4.19138e-07
4.40196e-07
4.3964e-07
4.16356e-07
4.44603e-07
4.44274e-07
8.54528e-07
8.73494e-07
4.16416e-07
4.42279e-07
4.43199e-07
8.80141e-07
8.8722e-07
9.18731e-07
4.59769e-07
4.6218e-07
4.99848e-07
5.02639e-07
8.94713e-07
9.12984e-07
4.57311e-07
4.49676e-07
4.98441e-07
4.97199e-07
4.57029e-07
5.00449e-07
4.99545e-07
8.83254e-07
9.15977e-07
4.54067e-07
4.94252e-07
4.97368e-07
9.13431e-07
9.27084e-07
9.46438e-07
5.08188e-07
5.1124e-07
5.42188e-07
5.34401e-07
9.18722e-07
9.36808e-07
5.07431e-07
5.11659e-07
5.4457e-07
5.40353e-07
5.09496e-07
5.31974e-07
5.37446e-07
9.26785e-07
9.49321e-07
5.08848e-07
5.49555e-07
5.38173e-07
9.45915e-07
9.54952e-07
9.7859e-07
5.55981e-07
5.45245e-07
5.88514e-07
5.98968e-07
9.47911e-07
9.90061e-07
5.58167e-07
5.51205e-07
5.87986e-07
5.9594e-07
5.51655e-07
6.00305e-07
6.02917e-07
9.57493e-07
9.81098e-07
5.52037e-07
5.94313e-07
6.00463e-07
9.86917e-07
9.87473e-07
1.01309e-06
6.01762e-07
6.19705e-07
6.46327e-07
6.5903e-07
1.00063e-06
1.01718e-06
5.98647e-07
6.10149e-07
6.43984e-07
6.39108e-07
6.16678e-07
6.5674e-07
6.44406e-07
9.89762e-07
1.00875e-06
6.13757e-07
6.39696e-07
6.41661e-07
1.00868e-06
1.02081e-06
1.03617e-06
6.56977e-07
6.66524e-07
6.8158e-07
6.86322e-07
1.02247e-06
1.03657e-06
6.57373e-07
6.47845e-07
6.83431e-07
6.87514e-07
6.51292e-07
6.84491e-07
6.78897e-07
1.01588e-06
1.03954e-06
6.49073e-07
6.85826e-07
6.79727e-07
1.03539e-06
1.04343e-06
1.06997e-06
6.93095e-07
6.95098e-07
7.3968e-07
7.34383e-07
1.04407e-06
1.06881e-06
6.92679e-07
7.02322e-07
7.34564e-07
7.38356e-07
6.93289e-07
7.33212e-07
7.3964e-07
1.04926e-06
1.07147e-06
6.94748e-07
7.38257e-07
7.3995e-07
1.07324e-06
1.07842e-06
1.09726e-06
7.52945e-07
7.46234e-07
7.78865e-07
7.75984e-07
1.07671e-06
1.09621e-06
7.4853e-07
7.49168e-07
7.78027e-07
7.77913e-07
7.51808e-07
7.74883e-07
7.77963e-07
1.07788e-06
1.09681e-06
7.51701e-07
7.77811e-07
7.7703e-07
1.09554e-06
1.10398e-06
1.12429e-06
7.86778e-07
7.88578e-07
8.21591e-07
8.25311e-07
1.10411e-06
1.12539e-06
7.87265e-07
7.87953e-07
8.22755e-07
8.24685e-07
7.86728e-07
8.26494e-07
8.22127e-07
1.10445e-06
1.12703e-06
7.85459e-07
8.24481e-07
8.20103e-07
1.1237e-06
1.13148e-06
1.14886e-06
8.3433e-07
8.34128e-07
8.60844e-07
8.55186e-07
1.13099e-06
1.1442e-06
8.34794e-07
8.36581e-07
8.60453e-07
8.61644e-07
8.34633e-07
8.54974e-07
8.61778e-07
1.13394e-06
1.14814e-06
8.33105e-07
8.6058e-07
8.62841e-07
1.14912e-06
1.15498e-06
1.17619e-06
8.67722e-07
8.63902e-07
8.9758e-07
9.02311e-07
1.15089e-06
1.18131e-06
8.67131e-07
8.67939e-07
8.95975e-07
8.94268e-07
8.68521e-07
9.01856e-07
8.96406e-07
1.15333e-06
1.17358e-06
8.69774e-07
8.93525e-07
8.96255e-07
1.1763e-06
1.18449e-06
1.20645e-06
9.11082e-07
9.15917e-07
9.42819e-07
9.44161e-07
1.19037e-06
1.20893e-06
9.09273e-07
9.07105e-07
9.42669e-07
9.43474e-07
9.09437e-07
9.43831e-07
9.43697e-07
1.18236e-06
1.20791e-06
9.08672e-07
9.43479e-07
9.42824e-07
1.20726e-06
1.21138e-06
1.21907e-06
9.48839e-07
9.49804e-07
9.62558e-07
9.62237e-07
1.21311e-06
1.21892e-06
9.4939e-07
9.51201e-07
9.63195e-07
9.66097e-07
9.50891e-07
9.62269e-07
9.64716e-07
1.21358e-06
1.2224e-06
9.50266e-07
9.65952e-07
9.64255e-07
1.22064e-06
1.22347e-06
1.24755e-06
9.68656e-07
9.6723e-07
9.98363e-07
9.94197e-07
1.22282e-06
1.24334e-06
9.68954e-07
9.71291e-07
9.97435e-07
9.95565e-07
9.69598e-07
9.94101e-07
9.94511e-07
1.22633e-06
1.24482e-06
9.69181e-07
9.94739e-07
9.94522e-07
1.24393e-06
1.25616e-06
1.27034e-06
1.00923e-06
1.00708e-06
1.02762e-06
1.03176e-06
1.25268e-06
1.27261e-06
1.00736e-06
1.00562e-06
1.02671e-06
1.02901e-06
1.00594e-06
1.0288e-06
1.03014e-06
1.25336e-06
1.27128e-06
1.00599e-06
1.03026e-06
1.02929e-06
1.27188e-06
1.27455e-06
1.2902e-06
1.03302e-06
1.03549e-06
1.05452e-06
1.05184e-06
1.27625e-06
1.2863e-06
1.03419e-06
1.03534e-06
1.05586e-06
1.05074e-06
1.03488e-06
1.05258e-06
1.05117e-06
1.27555e-06
1.28626e-06
1.03412e-06
1.04874e-06
1.05132e-06
1.28648e-06
1.29522e-06
1.30135e-06
1.05993e-06
1.05955e-06
1.0712e-06
1.07382e-06
1.29288e-06
1.3064e-06
1.05989e-06
1.05579e-06
1.07025e-06
1.07579e-06
1.05802e-06
1.07606e-06
1.0764e-06
1.29088e-06
1.3049e-06
1.0579e-06
1.07759e-06
1.0753e-06
1.30627e-06
1.30542e-06
1.32774e-06
1.07687e-06
1.07745e-06
1.10227e-06
1.09879e-06
1.30949e-06
1.32184e-06
1.07639e-06
1.082e-06
1.1021e-06
1.09588e-06
1.08123e-06
1.09706e-06
1.09681e-06
1.31076e-06
1.32235e-06
1.0804e-06
1.09416e-06
1.0969e-06
1.32243e-06
1.33393e-06
1.34069e-06
1.10864e-06
1.10703e-06
1.11784e-06
1.11943e-06
1.32917e-06
1.34241e-06
1.1083e-06
1.10162e-06
1.1184e-06
1.12208e-06
1.10333e-06
1.12029e-06
1.12063e-06
1.32643e-06
1.34249e-06
1.10346e-06
1.12223e-06
1.12091e-06
1.3427e-06
1.34362e-06
1.356e-06
1.12129e-06
1.12225e-06
1.13859e-06
1.1383e-06
1.34558e-06
1.3558e-06
1.12221e-06
1.12652e-06
1.1384e-06
1.13399e-06
1.1243e-06
1.13891e-06
1.13523e-06
1.34784e-06
1.35312e-06
1.12441e-06
1.13445e-06
1.13387e-06
1.35237e-06
1.36149e-06
1.36942e-06
1.14364e-06
1.14429e-06
1.15257e-06
1.15351e-06
1.3612e-06
1.36932e-06
1.14336e-06
1.13803e-06
1.15534e-06
1.15792e-06
1.14021e-06
1.15301e-06
1.15647e-06
1.35621e-06
1.37257e-06
1.13889e-06
1.15676e-06
1.15729e-06
1.37261e-06
1.37289e-06
1.38485e-06
1.15676e-06
1.15653e-06
1.17347e-06
1.1741e-06
1.37269e-06
1.38678e-06
1.15949e-06
1.16315e-06
1.17201e-06
1.17082e-06
1.1617e-06
1.17591e-06
1.17323e-06
1.37864e-06
1.38515e-06
1.16265e-06
1.17242e-06
1.17234e-06
1.38554e-06
1.38948e-06
1.39747e-06
1.17743e-06
1.17996e-06
1.18608e-06
1.18664e-06
1.39212e-06
1.3956e-06
1.17585e-06
1.1738e-06
1.18895e-06
1.18847e-06
1.1755e-06
1.18386e-06
1.18498e-06
1.38776e-06
1.39752e-06
1.17468e-06
1.18685e-06
1.18719e-06
1.39577e-06
1.40142e-06
1.41017e-06
1.19004e-06
1.18798e-06
1.20165e-06
1.19849e-06
1.39731e-06
1.40517e-06
1.19338e-06
1.19274e-06
1.20081e-06
1.19862e-06
1.18979e-06
1.19824e-06
1.20118e-06
1.40229e-06
1.40614e-06
1.19233e-06
1.19798e-06
1.20099e-06
1.41029e-06
1.41288e-06
1.41578e-06
1.20397e-06
1.20338e-06
1.21095e-06
1.21358e-06
1.41087e-06
1.42147e-06
1.2018e-06
1.20021e-06
1.2082e-06
1.21126e-06
1.20367e-06
1.21484e-06
1.2149e-06
1.40829e-06
1.41792e-06
1.20239e-06
1.21221e-06
1.21236e-06
1.41971e-06
1.41943e-06
1.42936e-06
1.21433e-06
1.21609e-06
1.22398e-06
1.22383e-06
1.4243e-06
1.42765e-06
1.21237e-06
1.21658e-06
1.22427e-06
1.22574e-06
1.21954e-06
1.22114e-06
1.22672e-06
1.4238e-06
1.43228e-06
1.21787e-06
1.22648e-06
1.22795e-06
1.43306e-06
1.43292e-06
1.43993e-06
1.22684e-06
1.22642e-06
1.23549e-06
1.23297e-06
1.43058e-06
1.43644e-06
1.22724e-06
1.22693e-06
1.23562e-06
1.23339e-06
1.22723e-06
1.23174e-06
1.23149e-06
1.43412e-06
1.43613e-06
1.22862e-06
1.23174e-06
1.23213e-06
1.4347e-06
1.44302e-06
1.44307e-06
1.23734e-06
1.23415e-06
1.23949e-06
1.23647e-06
1.43931e-06
1.43984e-06
1.2374e-06
1.23618e-06
1.23898e-06
1.23996e-06
1.23458e-06
1.23771e-06
1.24187e-06
1.4398e-06
1.44413e-06
1.23489e-06
1.24045e-06
1.24185e-06
1.44574e-06
1.44495e-06
1.45293e-06
1.24081e-06
1.23838e-06
1.25038e-06
1.24978e-06
1.44222e-06
1.45312e-06
1.23959e-06
1.24083e-06
1.24708e-06
1.24835e-06
1.24255e-06
1.24786e-06
1.24785e-06
1.44618e-06
1.45316e-06
1.24259e-06
1.24907e-06
1.24812e-06
1.45162e-06
1.4574e-06
1.45478e-06
1.25332e-06
1.25296e-06
1.25365e-06
1.25372e-06
1.45808e-06
1.4571e-06
1.25031e-06
1.25131e-06
1.25218e-06
1.25255e-06
1.25085e-06
1.25403e-06
1.25336e-06
1.45753e-06
1.45538e-06
1.25117e-06
1.25332e-06
1.25362e-06
1.45679e-06
1.45537e-06
1.44729e-06
1.25094e-06
1.25125e-06
1.24724e-06
1.24768e-06
1.45776e-06
1.44917e-06
1.25015e-06
1.25049e-06
1.24702e-06
1.24766e-06
1.25165e-06
1.24875e-06
1.24735e-06
1.45601e-06
1.4481e-06
1.25186e-06
1.24796e-06
1.24739e-06
1.4477e-06
1.45129e-06
1.47971e-06
1.24809e-06
1.24848e-06
1.26668e-06
1.26659e-06
1.4528e-06
1.4793e-06
1.24809e-06
1.24887e-06
1.26743e-06
1.26864e-06
1.24785e-06
1.2669e-06
1.2651e-06
1.45213e-06
1.48097e-06
1.24785e-06
1.26755e-06
1.26487e-06
1.4767e-06
1.48848e-06
1.5e-06
1.27412e-06
1.27409e-06
1.28293e-06
1.28348e-06
1.48807e-06
1.50034e-06
1.27487e-06
1.27607e-06
1.2835e-06
1.28444e-06
1.27287e-06
1.28373e-06
1.28358e-06
1.48979e-06
1.50111e-06
1.27262e-06
1.28408e-06
1.28334e-06
1.50052e-06
1.50092e-06
1.45969e-06
1.28196e-06
1.28263e-06
1.25632e-06
1.25716e-06
1.50131e-06
1.46024e-06
1.2825e-06
1.28334e-06
1.25667e-06
1.25696e-06
1.28294e-06
1.25729e-06
1.25791e-06
1.50199e-06
1.45984e-06
1.28271e-06
1.25706e-06
1.25773e-06
1.46183e-06
1.45517e-06
1.39143e-06
1.24276e-06
1.24355e-06
1.20219e-06
1.20261e-06
1.45568e-06
1.39134e-06
1.24302e-06
1.24315e-06
1.20224e-06
1.20218e-06
1.24421e-06
1.20228e-06
1.20248e-06
1.45522e-06
1.39084e-06
1.24406e-06
1.20208e-06
1.20238e-06
1.39168e-06
1.39013e-06
1.3855e-06
1.19421e-06
1.19454e-06
1.18931e-06
1.18952e-06
1.39001e-06
1.38522e-06
1.19424e-06
1.19418e-06
1.18934e-06
1.18932e-06
1.19421e-06
1.18909e-06
1.18896e-06
1.38952e-06
1.38499e-06
1.19409e-06
1.18897e-06
1.18879e-06
1.38457e-06
1.39358e-06
1.44562e-06
1.19395e-06
1.1941e-06
1.2305e-06
1.23066e-06
1.39331e-06
1.44556e-06
1.194e-06
1.19405e-06
1.23061e-06
1.23083e-06
1.19347e-06
1.23049e-06
1.23022e-06
1.39314e-06
1.44564e-06
1.19325e-06
1.2304e-06
1.22993e-06
1.44482e-06
1.46042e-06
1.52698e-06
1.24605e-06
1.24623e-06
1.29543e-06
1.29565e-06
1.46043e-06
1.52716e-06
1.24614e-06
1.2464e-06
1.29545e-06
1.29574e-06
1.24594e-06
1.29562e-06
1.29567e-06
1.46052e-06
1.52722e-06
1.24568e-06
1.29553e-06
1.29547e-06
1.52702e-06
1.54353e-06
1.60099e-06
1.31204e-06
1.31226e-06
1.35239e-06
1.35251e-06
1.54371e-06
1.60109e-06
1.31205e-06
1.31231e-06
1.35234e-06
1.35251e-06
1.31232e-06
1.35248e-06
1.35266e-06
1.54377e-06
1.60114e-06
1.31214e-06
1.35244e-06
1.35253e-06
1.60133e-06
1.61068e-06
1.60919e-06
1.36e-06
1.36009e-06
1.36241e-06
1.36244e-06
1.61076e-06
1.60915e-06
1.35994e-06
1.36008e-06
1.36232e-06
1.3624e-06
1.36025e-06
1.36239e-06
1.36259e-06
1.61079e-06
1.60918e-06
1.36014e-06
1.3624e-06
1.36251e-06
1.60949e-06
1.60645e-06
1.51258e-06
1.3531e-06
1.35307e-06
1.2962e-06
1.29613e-06
1.6064e-06
1.51246e-06
1.35299e-06
1.35302e-06
1.29606e-06
1.2961e-06
1.35321e-06
1.29607e-06
1.29622e-06
1.60642e-06
1.51252e-06
1.35315e-06
1.29614e-06
1.29619e-06
1.51273e-06
1.50372e-06
1.40107e-06
1.27268e-06
1.27261e-06
1.20932e-06
1.20927e-06
1.5036e-06
1.40098e-06
1.27255e-06
1.2726e-06
1.20919e-06
1.2093e-06
1.2727e-06
1.20923e-06
1.20935e-06
1.50366e-06
1.40108e-06
1.27267e-06
1.20929e-06
1.2093e-06
1.40116e-06
1.3957e-06
1.34518e-06
1.19244e-06
1.1924e-06
1.15721e-06
1.15721e-06
1.39561e-06
1.34512e-06
1.19232e-06
1.19244e-06
1.1571e-06
1.15724e-06
1.19248e-06
1.15713e-06
1.15726e-06
1.3957e-06
1.34521e-06
1.19242e-06
1.15718e-06
1.15718e-06
1.34524e-06
1.3451e-06
1.34136e-06
1.15049e-06
1.15049e-06
1.14234e-06
1.14237e-06
1.34504e-06
1.34131e-06
1.15037e-06
1.15051e-06
1.14223e-06
1.14238e-06
1.15054e-06
1.14226e-06
1.1424e-06
1.34513e-06
1.3414e-06
1.15045e-06
1.14231e-06
1.1423e-06
1.34141e-06
1.34597e-06
1.36491e-06
1.14245e-06
1.14248e-06
1.1514e-06
1.15144e-06
1.34593e-06
1.36486e-06
1.14235e-06
1.1425e-06
1.15131e-06
1.15146e-06
1.14251e-06
1.15133e-06
1.15147e-06
1.34601e-06
1.36496e-06
1.14241e-06
1.15138e-06
1.15137e-06
1.36498e-06
1.37103e-06
1.38601e-06
1.1544e-06
1.15444e-06
1.16014e-06
1.16019e-06
1.371e-06
1.38596e-06
1.15431e-06
1.15446e-06
1.16006e-06
1.16021e-06
1.15447e-06
1.16007e-06
1.16022e-06
1.37108e-06
1.38605e-06
1.15438e-06
1.16013e-06
1.16013e-06
1.38608e-06
1.39052e-06
1.39733e-06
1.16116e-06
1.1612e-06
1.1619e-06
1.16194e-06
1.39048e-06
1.39727e-06
1.16108e-06
1.16123e-06
1.16182e-06
1.16197e-06
1.16124e-06
1.16182e-06
1.16198e-06
1.39056e-06
1.39736e-06
1.16115e-06
1.16189e-06
1.16189e-06
1.3974e-06
1.40024e-06
1.40186e-06
1.16184e-06
1.16189e-06
1.16112e-06
1.16116e-06
1.40019e-06
1.40181e-06
1.16176e-06
1.16191e-06
1.16103e-06
1.16119e-06
1.16192e-06
1.16104e-06
1.1612e-06
1.40027e-06
1.4019e-06
1.16184e-06
1.1611e-06
1.16111e-06
1.40194e-06
1.40403e-06
1.40356e-06
1.16097e-06
1.16101e-06
1.1603e-06
1.16033e-06
1.40399e-06
1.40351e-06
1.16089e-06
1.16104e-06
1.16021e-06
1.16036e-06
1.16105e-06
1.16021e-06
1.16038e-06
1.40407e-06
1.40359e-06
1.16097e-06
1.16028e-06
1.16029e-06
1.40363e-06
1.40546e-06
1.40389e-06
1.16021e-06
1.16025e-06
1.1598e-06
1.15984e-06
1.40542e-06
1.40383e-06
1.16012e-06
1.16028e-06
1.15971e-06
1.15987e-06
1.16029e-06
1.15971e-06
1.15988e-06
1.40549e-06
1.40392e-06
1.1602e-06
1.15978e-06
1.15979e-06
1.40396e-06
1.40572e-06
1.40375e-06
1.15976e-06
1.1598e-06
1.15946e-06
1.1595e-06
1.40568e-06
1.40369e-06
1.15967e-06
1.15982e-06
1.15938e-06
1.15953e-06
1.15984e-06
1.15938e-06
1.15954e-06
1.40575e-06
1.40378e-06
1.15975e-06
1.15945e-06
1.15945e-06
1.40382e-06
1.40552e-06
1.40379e-06
1.15947e-06
1.15951e-06
1.1594e-06
1.15944e-06
1.40547e-06
1.40374e-06
1.15939e-06
1.15954e-06
1.15932e-06
1.15947e-06
1.15955e-06
1.15932e-06
1.15948e-06
1.40554e-06
1.40383e-06
1.15946e-06
1.15938e-06
1.15939e-06
1.40386e-06
1.40565e-06
1.40398e-06
1.15947e-06
1.15951e-06
1.15941e-06
1.15945e-06
1.4056e-06
1.40393e-06
1.15939e-06
1.15953e-06
1.15933e-06
1.15948e-06
1.15955e-06
1.15933e-06
1.15949e-06
1.40568e-06
1.40401e-06
1.15946e-06
1.15939e-06
1.1594e-06
1.40405e-06
1.40578e-06
1.4037e-06
1.15948e-06
1.15952e-06
1.15935e-06
1.15939e-06
1.40573e-06
1.40364e-06
1.1594e-06
1.15955e-06
1.15927e-06
1.15942e-06
1.15956e-06
1.15927e-06
1.15943e-06
1.4058e-06
1.40373e-06
1.15947e-06
1.15933e-06
1.15934e-06
1.40377e-06
1.40551e-06
1.40393e-06
1.15947e-06
1.15951e-06
1.15936e-06
1.15939e-06
1.40546e-06
1.40388e-06
1.15939e-06
1.15953e-06
1.15927e-06
1.15943e-06
1.15955e-06
1.15927e-06
1.15943e-06
1.40554e-06
1.40397e-06
1.15946e-06
1.15934e-06
1.15934e-06
1.404e-06
1.40575e-06
1.40363e-06
1.15952e-06
1.15956e-06
1.15897e-06
1.159e-06
1.40571e-06
1.40357e-06
1.15944e-06
1.15959e-06
1.15888e-06
1.15903e-06
1.1596e-06
1.15888e-06
1.15904e-06
1.40579e-06
1.40366e-06
1.15951e-06
1.15894e-06
1.15894e-06
1.40369e-06
1.40531e-06
1.38506e-06
1.15923e-06
1.15927e-06
1.13896e-06
1.13899e-06
1.40526e-06
1.38504e-06
1.15915e-06
1.1593e-06
1.13894e-06
1.13895e-06
1.15931e-06
1.13899e-06
1.13901e-06
1.40533e-06
1.38507e-06
1.15921e-06
1.13898e-06
1.13898e-06
1.3851e-06
1.36396e-06
1.10466e-06
1.10469e-06
1.36396e-06
1.10466e-06
1.10464e-06
6.50881e-07
6.50851e-07
6.50892e-07
1.10471e-06
1.36397e-06
1.1047e-06
7.89499e-09
2.6194e-09
4.8272e-09
4.81686e-09
1.56555e-09
4.4367e-09
1.04102e-08
2.6573e-09
1.57648e-09
3.8825e-09
2.78514e-09
2.78845e-09
5.31283e-09
3.84456e-09
3.78357e-09
7.79171e-09
1.63652e-07
5.94769e-09
2.59025e-07
1.5507e-06
3.08641e-06
7.50916e-09
1.64029e-07
6.16033e-09
2.60018e-07
3.26034e-09
3.22586e-09
3.42546e-09
3.2558e-09
3.24398e-09
3.20486e-09
3.40575e-09
1.51455e-09
8.43581e-08
2.12087e-09
4.62914e-09
1.54361e-09
6.27472e-08
2.09296e-09
1.6252e-06
3.23116e-06
1.60345e-09
1.93716e-09
7.52193e-08
3.29863e-09
1.60059e-09
1.92452e-09
5.40384e-08
2.1569e-07
2.15778e-07
4.91088e-09
1.85216e-07
1.85039e-07
1.67302e-08
4.64455e-07
1.21264e-08
6.71082e-07
6.92166e-06
9.96854e-06
1.63619e-08
4.65408e-07
1.26526e-08
6.69132e-07
3.23298e-09
3.19519e-09
3.39287e-09
3.21115e-09
3.20064e-09
3.16735e-09
3.35498e-09