/*--------------------------------*- C++ -*----------------------------------*\
| =========                 |                                                 |
| \\      /  F ield         | OpenFOAM: The Open Source CFD Toolbox           |
|  \\    /   O peration     | Version:  v1906                                 |
|   \\  /    A nd           | Web:      www.OpenFOAM.com                      |
|    \\/     M anipulation  |                                                 |
\*---------------------------------------------------------------------------*/
FoamFile
{
    version     2.0;
    format      ascii;
    class       volScalarField;
    location    "325";
    object      k;
}
// * * * * * * * * * * * * * * * * * * * * * * * * * * * * * * * * * * * * * //

dimensions      [0 2 -2 0 0 0 0];


internalField   nonuniform List<scalar> 
171728
(
4.83223e-07
3.35631e-07
2.82111e-07
3.57169e-07
4.77867e-07
3.18794e-07
2.67351e-07
3.38681e-07
4.78653e-07
3.04023e-07
2.54472e-07
3.21773e-07
4.7998e-07
2.91374e-07
2.41612e-07
3.0729e-07
4.81804e-07
2.79799e-07
2.30991e-07
2.94761e-07
4.83982e-07
2.68798e-07
2.234e-07
2.84214e-07
4.86657e-07
2.59321e-07
2.18272e-07
2.76283e-07
4.89895e-07
2.50896e-07
2.14058e-07
2.71988e-07
4.9362e-07
2.44508e-07
2.09898e-07
2.72347e-07
4.97822e-07
2.3719e-07
2.05256e-07
2.73741e-07
5.02757e-07
2.30944e-07
2.02311e-07
2.71479e-07
5.07935e-07
2.27772e-07
2.00822e-07
2.34511e-07
5.13208e-07
2.25913e-07
2.00871e-07
2.13889e-07
5.19173e-07
2.25078e-07
2.02679e-07
2.04745e-07
5.24759e-07
2.25836e-07
2.10659e-07
2.01643e-07
5.31422e-07
2.28982e-07
2.21521e-07
2.03153e-07
5.3736e-07
2.37373e-07
2.38289e-07
2.11618e-07
5.44242e-07
2.54399e-07
2.93931e-07
2.30663e-07
5.51028e-07
2.80959e-07
3.80169e-07
2.64252e-07
5.57914e-07
3.3161e-07
4.69492e-07
3.27035e-07
5.65731e-07
4.11199e-07
5.56622e-07
4.80872e-07
5.74604e-07
5.11591e-07
6.2392e-07
7.01759e-07
5.84115e-07
6.6582e-07
7.59828e-07
1.08688e-06
5.94677e-07
9.42242e-07
1.03232e-06
1.72073e-06
6.08292e-07
1.237e-06
1.23013e-06
2.60977e-06
6.22731e-07
1.64311e-06
1.692e-06
4.02418e-06
6.43984e-07
2.19694e-06
2.19359e-06
5.65608e-06
6.63574e-07
2.70033e-06
2.6945e-06
7.70757e-06
6.98945e-07
3.69303e-06
3.58697e-06
1.01357e-05
7.34311e-07
4.37528e-06
4.39726e-06
1.25892e-05
7.84662e-07
5.44798e-06
5.35669e-06
1.50718e-05
8.58849e-07
6.66691e-06
6.53112e-06
1.75594e-05
9.23153e-07
8.11933e-06
7.84425e-06
1.98433e-05
1.08197e-06
8.99912e-06
8.94874e-06
2.16776e-05
1.13349e-06
1.03593e-05
1.09143e-05
2.36357e-05
1.40127e-06
1.26229e-05
1.22625e-05
2.53468e-05
1.57424e-06
1.34156e-05
1.36782e-05
2.67696e-05
1.9771e-06
1.58594e-05
1.64849e-05
2.82423e-05
2.05995e-06
1.69909e-05
1.72991e-05
2.94775e-05
2.76791e-06
1.98311e-05
1.88909e-05
3.08281e-05
3.0357e-06
2.04172e-05
2.14596e-05
3.16236e-05
3.69485e-06
2.27833e-05
2.29085e-05
3.35905e-05
4.32348e-06
2.58639e-05
2.47537e-05
3.43519e-05
5.15289e-06
2.62674e-05
2.61008e-05
3.49312e-05
5.69808e-06
2.8181e-05
2.83532e-05
3.67741e-05
7.23657e-06
2.93344e-05
2.97296e-05
3.75521e-05
7.67284e-06
3.19235e-05
3.14919e-05
3.85954e-05
9.47803e-06
3.26248e-05
3.31971e-05
3.97287e-05
1.00588e-05
3.41724e-05
3.36496e-05
4.04547e-05
1.18858e-05
3.66244e-05
3.63303e-05
4.21828e-05
1.377e-05
3.70957e-05
3.73427e-05
4.25736e-05
1.40393e-05
3.76286e-05
3.77636e-05
4.31526e-05
1.63224e-05
3.98151e-05
3.98501e-05
4.46964e-05
1.78283e-05
4.05715e-05
4.0497e-05
4.51594e-05
1.92987e-05
4.18645e-05
4.18406e-05
4.60699e-05
2.01611e-05
4.25145e-05
4.24937e-05
4.66608e-05
2.25238e-05
4.38005e-05
4.39608e-05
4.77388e-05
2.36109e-05
4.47699e-05
4.46148e-05
4.80122e-05
2.51501e-05
4.53406e-05
4.54645e-05
4.89893e-05
2.65759e-05
4.66733e-05
4.65591e-05
4.96834e-05
2.78983e-05
4.72634e-05
4.72128e-05
5.00363e-05
2.95229e-05
4.75479e-05
4.79279e-05
5.08877e-05
3.03115e-05
4.89414e-05
4.84246e-05
5.11903e-05
3.15664e-05
4.93034e-05
4.96569e-05
5.21489e-05
3.28048e-05
4.99296e-05
4.98209e-05
5.21205e-05
3.39919e-05
5.04488e-05
5.05483e-05
5.28926e-05
3.45888e-05
5.09073e-05
5.10751e-05
5.31303e-05
3.60446e-05
5.18711e-05
5.18216e-05
5.39212e-05
3.66706e-05
5.16354e-05
5.15339e-05
5.33282e-05
3.68147e-05
5.2133e-05
5.21633e-05
5.41778e-05
3.96446e-05
5.44504e-05
5.44946e-05
5.63775e-05
4.08029e-05
5.46452e-05
5.46619e-05
5.62301e-05
3.90726e-05
5.11552e-05
5.11399e-05
5.25972e-05
3.63875e-05
4.93168e-05
4.93043e-05
5.08891e-05
3.61988e-05
5.06972e-05
5.06899e-05
5.28427e-05
4.10494e-05
5.46333e-05
5.46285e-05
5.64261e-05
4.58704e-05
5.87031e-05
5.86994e-05
6.03653e-05
4.86339e-05
6.08086e-05
6.08065e-05
6.24323e-05
4.85269e-05
5.90229e-05
5.90235e-05
5.97948e-05
4.27497e-05
5.32257e-05
5.32266e-05
5.43351e-05
3.79286e-05
4.97165e-05
4.97169e-05
5.11459e-05
3.61829e-05
4.89185e-05
4.89186e-05
5.06546e-05
3.74398e-05
5.02911e-05
5.02909e-05
5.2149e-05
4.01217e-05
5.16454e-05
5.16456e-05
5.34317e-05
4.12335e-05
5.21323e-05
5.21326e-05
5.39833e-05
4.15979e-05
5.2234e-05
5.22342e-05
5.41523e-05
4.17194e-05
5.22421e-05
5.22424e-05
5.42039e-05
4.17484e-05
5.22333e-05
5.22336e-05
5.42166e-05
4.1739e-05
5.22122e-05
5.22125e-05
5.42031e-05
4.17344e-05
5.2207e-05
5.22073e-05
5.41926e-05
4.17362e-05
5.22099e-05
5.22101e-05
5.42104e-05
4.17349e-05
5.22076e-05
5.22078e-05
5.41955e-05
4.17347e-05
5.22097e-05
5.22099e-05
5.42007e-05
4.17246e-05
5.21935e-05
5.21935e-05
5.41981e-05
4.13389e-05
5.11151e-05
5.11138e-05
5.38808e-05
3.71541e-07
3.60318e-07
3.28701e-07
3.47362e-07
3.44911e-07
3.57814e-07
4.90526e-07
4.87699e-07
4.8927e-07
4.9741e-07
3.35285e-07
3.44694e-07
3.69424e-07
3.36275e-07
3.43083e-07
3.58586e-07
3.70526e-07
3.52891e-07
3.45598e-07
3.64495e-07
3.32506e-07
3.49746e-07
3.46052e-07
3.30809e-07
3.38452e-07
3.52227e-07
3.25367e-07
3.3863e-07
3.55231e-07
3.22933e-07
3.43745e-07
3.6869e-07
3.50663e-07
3.41105e-07
2.70797e-07
3.27209e-07
3.41238e-07
3.51565e-07
3.34741e-07
3.2809e-07
3.44614e-07
3.15567e-07
3.27396e-07
3.28668e-07
3.1623e-07
3.2111e-07
3.34057e-07
3.09097e-07
3.21258e-07
3.40409e-07
3.07571e-07
3.33252e-07
3.49389e-07
3.3145e-07
3.22937e-07
2.5756e-07
3.11631e-07
3.24424e-07
3.33515e-07
3.18495e-07
3.11611e-07
3.21077e-07
3.00681e-07
3.02483e-07
3.14528e-07
3.03355e-07
3.05362e-07
3.17279e-07
2.94852e-07
3.05956e-07
3.31714e-07
2.94463e-07
3.28227e-07
3.30229e-07
3.13894e-07
3.08237e-07
2.44857e-07
2.98331e-07
3.09615e-07
3.17387e-07
3.04022e-07
2.97309e-07
2.96353e-07
2.87701e-07
2.79457e-07
3.01859e-07
2.90659e-07
2.91453e-07
3.02309e-07
2.81953e-07
2.9215e-07
3.27776e-07
2.82703e-07
3.27753e-07
3.12801e-07
2.98772e-07
2.9494e-07
2.33287e-07
2.84264e-07
2.9689e-07
3.03009e-07
2.9092e-07
2.84663e-07
2.74829e-07
2.76219e-07
2.63897e-07
2.89026e-07
2.77476e-07
2.78925e-07
2.889e-07
2.70536e-07
2.79746e-07
3.27987e-07
2.71379e-07
3.30689e-07
2.97858e-07
2.85718e-07
2.80769e-07
2.25049e-07
2.71799e-07
2.8599e-07
2.89994e-07
2.7861e-07
2.73507e-07
2.60961e-07
2.66039e-07
2.53288e-07
2.76088e-07
2.65143e-07
2.67833e-07
2.76879e-07
2.60253e-07
2.68657e-07
3.32263e-07
2.61694e-07
3.37267e-07
2.84912e-07
2.73983e-07
2.6907e-07
2.1934e-07
2.61291e-07
2.77718e-07
2.77703e-07
2.6675e-07
2.63662e-07
2.50993e-07
2.56897e-07
2.44519e-07
2.64215e-07
2.54095e-07
2.57971e-07
2.65986e-07
2.51295e-07
2.58473e-07
3.39661e-07
2.52814e-07
3.46777e-07
2.73272e-07
2.63264e-07
2.58926e-07
2.15126e-07
2.51915e-07
2.72798e-07
2.65911e-07
2.55956e-07
2.54742e-07
2.42491e-07
2.48302e-07
2.37009e-07
2.53252e-07
2.44342e-07
2.49078e-07
2.5607e-07
2.4302e-07
2.49377e-07
3.4865e-07
2.46116e-07
3.63098e-07
2.62599e-07
2.52882e-07
2.49336e-07
2.10931e-07
2.42399e-07
2.72562e-07
2.55233e-07
2.46415e-07
2.46211e-07
2.35354e-07
2.40469e-07
2.30453e-07
2.43668e-07
2.35763e-07
2.41116e-07
2.4722e-07
2.35747e-07
2.41638e-07
3.71022e-07
2.39045e-07
3.9082e-07
2.52243e-07
2.422e-07
2.40541e-07
2.06444e-07
2.36431e-07
2.74133e-07
2.45818e-07
2.38101e-07
2.3882e-07
2.28954e-07
2.34611e-07
2.25085e-07
2.3515e-07
2.27759e-07
2.34111e-07
2.40071e-07
2.29684e-07
2.35886e-07
3.93401e-07
2.32239e-07
3.89352e-07
2.41617e-07
2.32455e-07
2.35373e-07
2.02796e-07
2.32882e-07
2.73108e-07
2.37644e-07
2.30981e-07
2.33287e-07
2.23864e-07
2.29871e-07
2.21024e-07
2.27264e-07
2.21095e-07
2.28402e-07
2.34773e-07
2.25106e-07
2.31934e-07
3.73524e-07
2.28373e-07
2.93504e-07
2.31991e-07
2.24246e-07
2.31899e-07
2.0124e-07
2.2827e-07
2.36823e-07
2.30664e-07
2.25048e-07
2.28998e-07
2.20175e-07
2.26366e-07
2.18374e-07
2.20751e-07
2.15597e-07
2.24269e-07
2.31227e-07
2.2228e-07
2.29588e-07
2.69851e-07
2.26276e-07
2.15292e-07
2.23936e-07
2.17552e-07
2.27068e-07
2.00716e-07
2.24381e-07
2.14747e-07
2.24923e-07
2.20385e-07
2.25568e-07
2.1786e-07
2.24153e-07
2.17219e-07
2.15457e-07
2.11828e-07
2.21832e-07
2.2894e-07
2.20959e-07
2.27273e-07
2.02786e-07
2.25206e-07
1.79987e-07
2.17422e-07
2.12161e-07
2.2364e-07
2.02148e-07
2.21826e-07
2.04634e-07
2.2048e-07
2.17503e-07
2.23904e-07
2.1723e-07
2.2405e-07
2.17933e-07
2.11966e-07
2.0986e-07
2.20729e-07
2.26952e-07
2.21065e-07
2.26537e-07
1.76978e-07
2.25446e-07
1.7584e-07
2.12246e-07
2.09628e-07
2.214e-07
2.07747e-07
2.21425e-07
2.00964e-07
2.18004e-07
2.17753e-07
2.24361e-07
2.18566e-07
2.26819e-07
2.21859e-07
2.10514e-07
2.11314e-07
2.21575e-07
2.26737e-07
2.24429e-07
2.29153e-07
1.76495e-07
2.27851e-07
1.8177e-07
2.1034e-07
2.11776e-07
2.2186e-07
2.1935e-07
2.24287e-07
2.0141e-07
2.19095e-07
2.22802e-07
2.28195e-07
2.23376e-07
2.34206e-07
2.29462e-07
2.12909e-07
2.1732e-07
2.25841e-07
2.30435e-07
2.31543e-07
2.3721e-07
1.83967e-07
2.34981e-07
1.92811e-07
2.13471e-07
2.2016e-07
2.25866e-07
2.32247e-07
2.33083e-07
2.07803e-07
2.25741e-07
2.36843e-07
2.36529e-07
2.31976e-07
2.49138e-07
2.44534e-07
2.20393e-07
2.32813e-07
2.34316e-07
2.39701e-07
2.47354e-07
2.52848e-07
1.96243e-07
2.49958e-07
2.12324e-07
2.23858e-07
2.43366e-07
2.35685e-07
2.78015e-07
2.4869e-07
2.22867e-07
2.42869e-07
2.66641e-07
2.52692e-07
2.49291e-07
2.75136e-07
2.69975e-07
2.38858e-07
2.62691e-07
2.51222e-07
2.58474e-07
2.7378e-07
2.77968e-07
2.18279e-07
2.74426e-07
2.39613e-07
2.52248e-07
2.88032e-07
2.54091e-07
3.5804e-07
2.72786e-07
2.50989e-07
2.81974e-07
3.22545e-07
2.84287e-07
2.76645e-07
3.16719e-07
3.18034e-07
2.74066e-07
3.26892e-07
2.8286e-07
2.87364e-07
3.14432e-07
3.244e-07
2.52938e-07
3.20414e-07
2.82536e-07
3.03583e-07
3.64503e-07
2.84973e-07
4.51431e-07
3.10689e-07
3.12444e-07
3.43968e-07
4.37296e-07
3.29704e-07
3.29444e-07
3.85837e-07
3.78229e-07
3.5229e-07
4.15341e-07
3.27493e-07
3.35524e-07
3.85543e-07
3.89995e-07
2.97805e-07
3.79479e-07
3.63868e-07
3.85841e-07
4.72794e-07
3.24968e-07
5.29115e-07
3.88024e-07
4.49809e-07
4.81773e-07
6.33623e-07
4.08008e-07
4.10462e-07
4.89129e-07
4.79284e-07
4.61711e-07
6.57488e-07
4.07382e-07
4.11029e-07
4.88709e-07
4.93593e-07
3.80056e-07
4.78594e-07
4.66396e-07
5.1484e-07
6.88171e-07
4.01938e-07
6.14619e-07
4.82026e-07
6.13473e-07
7.01229e-07
9.89279e-07
5.23647e-07
5.13387e-07
6.36162e-07
6.36759e-07
6.92614e-07
1.03218e-06
5.23617e-07
5.24132e-07
6.32389e-07
6.46702e-07
5.11747e-07
6.3315e-07
6.22871e-07
7.44188e-07
9.99858e-07
5.27696e-07
7.29206e-07
6.37159e-07
1.02931e-06
1.0733e-06
1.60661e-06
6.98915e-07
6.69179e-07
8.31223e-07
8.86588e-07
1.13191e-06
1.58122e-06
6.94397e-07
6.87541e-07
8.33678e-07
8.54283e-07
6.56094e-07
8.78066e-07
8.50341e-07
1.11225e-06
1.5438e-06
6.70045e-07
9.34365e-07
8.53126e-07
1.52818e-06
1.70567e-06
2.55022e-06
8.81667e-07
9.51797e-07
1.21342e-06
1.13537e-06
1.8176e-06
2.33724e-06
8.82252e-07
9.45557e-07
1.21077e-06
1.1437e-06
9.24268e-07
1.12644e-06
1.13419e-06
1.70265e-06
2.53589e-06
9.28795e-07
1.18614e-06
1.13593e-06
2.43051e-06
2.90527e-06
3.40747e-06
1.28521e-06
1.2515e-06
1.50095e-06
1.5547e-06
2.47591e-06
3.90586e-06
1.28346e-06
1.21316e-06
1.5015e-06
1.5737e-06
1.2312e-06
1.54938e-06
1.54744e-06
2.62567e-06
3.71529e-06
1.23274e-06
1.59967e-06
1.54215e-06
3.74442e-06
3.56238e-06
5.70276e-06
1.63682e-06
1.64574e-06
2.09408e-06
2.04912e-06
4.11448e-06
5.29007e-06
1.64747e-06
1.69335e-06
2.06843e-06
1.99073e-06
1.65586e-06
2.02527e-06
2.03503e-06
4.10152e-06
5.24159e-06
1.65395e-06
2.00628e-06
2.02069e-06
5.27497e-06
5.9733e-06
7.37495e-06
2.24629e-06
2.21501e-06
2.56042e-06
2.60519e-06
5.76079e-06
7.20971e-06
2.22267e-06
2.15961e-06
2.57036e-06
2.69231e-06
2.1743e-06
2.60018e-06
2.65405e-06
5.55371e-06
7.46497e-06
2.14701e-06
2.61827e-06
2.66374e-06
7.27519e-06
7.8046e-06
9.46953e-06
2.71412e-06
2.71843e-06
3.45302e-06
3.44117e-06
7.56213e-06
9.62073e-06
2.71692e-06
2.77667e-06
3.43531e-06
3.35966e-06
2.83227e-06
3.4151e-06
3.33916e-06
7.94225e-06
9.17345e-06
2.84782e-06
3.35405e-06
3.30515e-06
9.71973e-06
1.02157e-05
1.20871e-05
3.64804e-06
3.70302e-06
4.12534e-06
4.11905e-06
1.01006e-05
1.25182e-05
3.63109e-06
3.6456e-06
4.12478e-06
4.17833e-06
3.54803e-06
4.11567e-06
4.18394e-06
9.69251e-06
1.25884e-05
3.53841e-06
4.17984e-06
4.15935e-06
1.19928e-05
1.23132e-05
1.47262e-05
4.36201e-06
4.38879e-06
5.16654e-06
5.34907e-06
1.29575e-05
1.4478e-05
4.3615e-06
4.3783e-06
5.17814e-06
5.21928e-06
4.37752e-06
5.31184e-06
5.32217e-06
1.29499e-05
1.43371e-05
4.35698e-06
5.09428e-06
5.25351e-06
1.46576e-05
1.54081e-05
1.69676e-05
5.44965e-06
5.48244e-06
6.37501e-06
6.05754e-06
1.51437e-05
1.67891e-05
5.4436e-06
5.45139e-06
6.36731e-06
6.25609e-06
5.6172e-06
6.04908e-06
6.05345e-06
1.4997e-05
1.70372e-05
5.51801e-06
6.27044e-06
6.11967e-06
1.71164e-05
1.7456e-05
1.91976e-05
6.59445e-06
6.69694e-06
7.31458e-06
8.02505e-06
1.73594e-05
2.01547e-05
6.6591e-06
6.59919e-06
7.27388e-06
7.47797e-06
6.40347e-06
8.00677e-06
7.68332e-06
1.74455e-05
1.93066e-05
6.44205e-06
7.46425e-06
7.59224e-06
1.91939e-05
1.95823e-05
2.16213e-05
7.76984e-06
8.13312e-06
9.17358e-06
8.47041e-06
2.04314e-05
2.06412e-05
7.60258e-06
7.79316e-06
9.13579e-06
8.83515e-06
7.91757e-06
8.44444e-06
8.82809e-06
1.98069e-05
2.11558e-05
7.85053e-06
8.68983e-06
8.7862e-06
2.13771e-05
2.207e-05
2.28517e-05
9.39834e-06
9.00768e-06
9.77071e-06
1.00973e-05
2.09686e-05
2.35064e-05
9.48746e-06
9.08288e-06
9.91357e-06
1.01158e-05
9.29039e-06
1.00513e-05
1.01692e-05
2.15537e-05
2.32344e-05
9.23427e-06
1.03128e-05
1.01255e-05
2.31883e-05
2.31742e-05
2.48922e-05
1.01929e-05
1.04408e-05
1.21534e-05
1.21591e-05
2.38706e-05
2.49164e-05
1.02675e-05
1.07164e-05
1.19138e-05
1.23176e-05
1.03809e-05
1.21344e-05
1.1972e-05
2.37976e-05
2.50157e-05
1.03537e-05
1.21235e-05
1.19306e-05
2.48689e-05
2.53887e-05
2.65633e-05
1.24472e-05
1.25493e-05
1.32414e-05
1.31097e-05
2.53548e-05
2.63919e-05
1.22064e-05
1.25301e-05
1.33057e-05
1.28468e-05
1.26263e-05
1.31553e-05
1.3541e-05
2.52301e-05
2.60107e-05
1.2566e-05
1.30737e-05
1.34717e-05
2.64991e-05
2.68892e-05
2.79796e-05
1.39024e-05
1.36166e-05
1.56977e-05
1.55266e-05
2.67035e-05
2.78523e-05
1.39557e-05
1.32231e-05
1.56642e-05
1.58162e-05
1.36518e-05
1.54768e-05
1.52525e-05
2.65095e-05
2.83904e-05
1.3583e-05
1.58994e-05
1.51399e-05
2.78121e-05
2.82512e-05
2.8869e-05
1.59329e-05
1.58145e-05
1.63062e-05
1.63436e-05
2.81413e-05
2.90864e-05
1.58895e-05
1.63908e-05
1.62177e-05
1.69695e-05
1.59666e-05
1.64229e-05
1.68204e-05
2.86928e-05
2.90276e-05
1.59021e-05
1.72468e-05
1.69827e-05
2.91929e-05
2.91704e-05
3.07266e-05
1.68036e-05
1.69762e-05
1.92793e-05
1.93984e-05
2.9585e-05
3.08675e-05
1.66457e-05
1.70246e-05
1.91346e-05
1.83366e-05
1.70235e-05
1.93068e-05
1.90544e-05
2.9196e-05
3.02393e-05
1.71079e-05
1.79157e-05
1.87699e-05
3.05269e-05
3.10128e-05
3.16213e-05
1.96151e-05
1.99415e-05
2.02267e-05
2.05308e-05
3.10293e-05
3.10716e-05
1.94246e-05
1.93017e-05
2.0432e-05
2.06075e-05
1.96439e-05
2.03734e-05
2.02431e-05
3.07519e-05
3.18514e-05
1.94684e-05
2.11999e-05
2.02903e-05
3.13549e-05
3.19008e-05
3.27695e-05
2.09427e-05
2.05694e-05
2.22048e-05
2.1346e-05
3.12474e-05
3.27812e-05
2.11469e-05
2.07753e-05
2.24523e-05
2.22402e-05
2.04089e-05
2.14674e-05
2.25393e-05
3.20599e-05
3.28413e-05
2.04934e-05
2.22486e-05
2.24887e-05
3.32205e-05
3.29915e-05
3.4097e-05
2.24666e-05
2.26189e-05
2.43859e-05
2.54987e-05
3.34058e-05
3.48069e-05
2.25735e-05
2.30111e-05
2.39932e-05
2.45623e-05
2.33909e-05
2.54721e-05
2.49746e-05
3.31881e-05
3.40814e-05
2.32797e-05
2.45744e-05
2.48025e-05
3.42148e-05
3.44678e-05
3.50623e-05
2.50555e-05
2.59618e-05
2.58374e-05
2.64159e-05
3.49627e-05
3.51145e-05
2.482e-05
2.4696e-05
2.61422e-05
2.53855e-05
2.51479e-05
2.62119e-05
2.53365e-05
3.42475e-05
3.48327e-05
2.49665e-05
2.5382e-05
2.52587e-05
3.46979e-05
3.51987e-05
3.61711e-05
2.59456e-05
2.64473e-05
2.7584e-05
2.7337e-05
3.52535e-05
3.61826e-05
2.62437e-05
2.61856e-05
2.72818e-05
2.78912e-05
2.55556e-05
2.76356e-05
2.76973e-05
3.5212e-05
3.64703e-05
2.56599e-05
2.78546e-05
2.77658e-05
3.64464e-05
3.65675e-05
3.7444e-05
2.84033e-05
2.81543e-05
2.97999e-05
2.91116e-05
3.65422e-05
3.71535e-05
2.80673e-05
2.83515e-05
2.95836e-05
2.9478e-05
2.83967e-05
2.88741e-05
2.96457e-05
3.6679e-05
3.73041e-05
2.84382e-05
2.94952e-05
2.96432e-05
3.74157e-05
3.76073e-05
3.83626e-05
2.99157e-05
2.94449e-05
3.06266e-05
3.12447e-05
3.73936e-05
3.87032e-05
2.97884e-05
2.97191e-05
3.08136e-05
3.08675e-05
2.98116e-05
3.13686e-05
3.07242e-05
3.7511e-05
3.84895e-05
2.98041e-05
3.08845e-05
3.06149e-05
3.82885e-05
3.86728e-05
3.95242e-05
3.1309e-05
3.18167e-05
3.29095e-05
3.25669e-05
3.89457e-05
3.91835e-05
3.1414e-05
3.14755e-05
3.29087e-05
3.30201e-05
3.13121e-05
3.25836e-05
3.29471e-05
3.88094e-05
3.96298e-05
3.11704e-05
3.29938e-05
3.29221e-05
3.95829e-05
3.96548e-05
4.01686e-05
3.31066e-05
3.26194e-05
3.34582e-05
3.33989e-05
3.92648e-05
4.03057e-05
3.3103e-05
3.32419e-05
3.34405e-05
3.34878e-05
3.31936e-05
3.33522e-05
3.35283e-05
3.97295e-05
3.99927e-05
3.32306e-05
3.34303e-05
3.36169e-05
4.01957e-05
4.04601e-05
4.1934e-05
3.39034e-05
3.41929e-05
3.59549e-05
3.62121e-05
4.0773e-05
4.21562e-05
3.3853e-05
3.36974e-05
3.58639e-05
3.57077e-05
3.38641e-05
3.62066e-05
3.58262e-05
4.02475e-05
4.18917e-05
3.394e-05
3.56989e-05
3.57742e-05
4.19069e-05
4.21725e-05
4.23991e-05
3.64482e-05
3.6628e-05
3.69994e-05
3.70905e-05
4.23182e-05
4.243e-05
3.64027e-05
3.63361e-05
3.70719e-05
3.7259e-05
3.63996e-05
3.70922e-05
3.72087e-05
4.21937e-05
4.26146e-05
3.63508e-05
3.72859e-05
3.71932e-05
4.25363e-05
4.24306e-05
4.29994e-05
3.70153e-05
3.70947e-05
3.73777e-05
3.71783e-05
4.2454e-05
4.27516e-05
3.70941e-05
3.73088e-05
3.74312e-05
3.74923e-05
3.72463e-05
3.71944e-05
3.73771e-05
4.26545e-05
4.29009e-05
3.72339e-05
3.74646e-05
3.73626e-05
4.28297e-05
4.34339e-05
4.44441e-05
3.8123e-05
3.75605e-05
3.95342e-05
3.97448e-05
4.3103e-05
4.46346e-05
3.81275e-05
3.79161e-05
3.92564e-05
3.93432e-05
3.77323e-05
3.96098e-05
3.95209e-05
4.32206e-05
4.4505e-05
3.7728e-05
3.94938e-05
3.9514e-05
4.45539e-05
4.45268e-05
4.52165e-05
3.96378e-05
4.00257e-05
4.04892e-05
4.02726e-05
4.47573e-05
4.48786e-05
3.94786e-05
3.96984e-05
4.07075e-05
4.05389e-05
3.98253e-05
4.0142e-05
4.03632e-05
4.46571e-05
4.50813e-05
3.9776e-05
4.03872e-05
4.03692e-05
4.5002e-05
4.5481e-05
4.57483e-05
4.09022e-05
4.05059e-05
4.14169e-05
4.16217e-05
4.50588e-05
4.60544e-05
4.10571e-05
4.06721e-05
4.13742e-05
4.13242e-05
4.06108e-05
4.17507e-05
4.15293e-05
4.52078e-05
4.57255e-05
4.06509e-05
4.14194e-05
4.1492e-05
4.59102e-05
4.57711e-05
4.65777e-05
4.14531e-05
4.17101e-05
4.23261e-05
4.20556e-05
4.61281e-05
4.62927e-05
4.13977e-05
4.16982e-05
4.22951e-05
4.24129e-05
4.17828e-05
4.21272e-05
4.23362e-05
4.59635e-05
4.66345e-05
4.17177e-05
4.24245e-05
4.23164e-05
4.64954e-05
4.69581e-05
4.75685e-05
4.29143e-05
4.26082e-05
4.37432e-05
4.37912e-05
4.65562e-05
4.75987e-05
4.28802e-05
4.25497e-05
4.36983e-05
4.35808e-05
4.25806e-05
4.3624e-05
4.36448e-05
4.6716e-05
4.74038e-05
4.25814e-05
4.34874e-05
4.36797e-05
4.75611e-05
4.76009e-05
4.79566e-05
4.37844e-05
4.38808e-05
4.42392e-05
4.41799e-05
4.76851e-05
4.79897e-05
4.37602e-05
4.39888e-05
4.43244e-05
4.44878e-05
4.39224e-05
4.44651e-05
4.43136e-05
4.76929e-05
4.8132e-05
4.39701e-05
4.45957e-05
4.42811e-05
4.79416e-05
4.82257e-05
4.87907e-05
4.46914e-05
4.46269e-05
4.52891e-05
4.54892e-05
4.82238e-05
4.88119e-05
4.46359e-05
4.45133e-05
4.53439e-05
4.51332e-05
4.44684e-05
4.52453e-05
4.52202e-05
4.81556e-05
4.86045e-05
4.43892e-05
4.49141e-05
4.52153e-05
4.87581e-05
4.88639e-05
4.94001e-05
4.53606e-05
4.55405e-05
4.61842e-05
4.58949e-05
4.88675e-05
4.93875e-05
4.5529e-05
4.56454e-05
4.61776e-05
4.63579e-05
4.55263e-05
4.62706e-05
4.64356e-05
4.89437e-05
4.96293e-05
4.55814e-05
4.64864e-05
4.64166e-05
4.96001e-05
4.96038e-05
5.00662e-05
4.65191e-05
4.63962e-05
4.69818e-05
4.73275e-05
4.96767e-05
5.02577e-05
4.63744e-05
4.64013e-05
4.69941e-05
4.69175e-05
4.6604e-05
4.72505e-05
4.68156e-05
4.96683e-05
4.99839e-05
4.65195e-05
4.6867e-05
4.6846e-05
4.98921e-05
5.01768e-05
5.08386e-05
4.71239e-05
4.73867e-05
4.79134e-05
4.74713e-05
5.02786e-05
5.02576e-05
4.72922e-05
4.73014e-05
4.80914e-05
4.7962e-05
4.70003e-05
4.73175e-05
4.78534e-05
5.02264e-05
5.07023e-05
4.71373e-05
4.78829e-05
4.79942e-05
5.07961e-05
5.09551e-05
5.1067e-05
4.81192e-05
4.76503e-05
4.84239e-05
4.85516e-05
5.04438e-05
5.14057e-05
4.81996e-05
4.80005e-05
4.82726e-05
4.80979e-05
4.80031e-05
4.87063e-05
4.83872e-05
5.07256e-05
5.08709e-05
4.80992e-05
4.80964e-05
4.82193e-05
5.10328e-05
5.11278e-05
5.17045e-05
4.85815e-05
4.87575e-05
4.91577e-05
4.92571e-05
5.1527e-05
5.17492e-05
4.83388e-05
4.83421e-05
4.91188e-05
4.94274e-05
4.86823e-05
4.92694e-05
4.95596e-05
5.111e-05
5.20305e-05
4.83922e-05
4.9515e-05
4.95354e-05
5.20713e-05
5.18304e-05
5.23481e-05
4.93003e-05
4.93978e-05
4.98938e-05
4.99139e-05
5.18172e-05
5.22408e-05
4.93122e-05
4.95534e-05
4.99564e-05
4.97595e-05
4.96799e-05
4.968e-05
4.97263e-05
5.20979e-05
5.213e-05
4.97153e-05
4.97495e-05
4.98093e-05
5.20881e-05
5.25088e-05
5.27457e-05
5.01333e-05
5.00858e-05
5.04841e-05
5.02974e-05
5.23837e-05
5.25655e-05
5.02007e-05
4.99964e-05
5.05796e-05
5.05336e-05
4.97487e-05
5.04198e-05
5.05035e-05
5.22317e-05
5.27407e-05
4.98295e-05
5.0476e-05
5.04995e-05
5.2803e-05
5.27582e-05
5.2969e-05
5.04978e-05
5.03092e-05
5.07346e-05
5.06891e-05
5.25781e-05
5.29341e-05
5.05906e-05
5.05711e-05
5.06412e-05
5.07182e-05
5.06583e-05
5.05972e-05
5.07998e-05
5.27788e-05
5.30132e-05
5.06497e-05
5.07642e-05
5.07971e-05
5.29855e-05
5.3205e-05
5.38509e-05
5.11201e-05
5.11049e-05
5.182e-05
5.18408e-05
5.32058e-05
5.39236e-05
5.08423e-05
5.10046e-05
5.17131e-05
5.17384e-05
5.09513e-05
5.18087e-05
5.1783e-05
5.32394e-05
5.3853e-05
5.09649e-05
5.17862e-05
5.17972e-05
5.38907e-05
5.38585e-05
5.32358e-05
5.18433e-05
5.18719e-05
5.16088e-05
5.16647e-05
5.39397e-05
5.33502e-05
5.1759e-05
5.17702e-05
5.15805e-05
5.15706e-05
5.1852e-05
5.17306e-05
5.17128e-05
5.38614e-05
5.32403e-05
5.18646e-05
5.1628e-05
5.17217e-05
5.33621e-05
5.32168e-05
5.39267e-05
5.1513e-05
5.1564e-05
5.16391e-05
5.16538e-05
5.33258e-05
5.39047e-05
5.14958e-05
5.14865e-05
5.16547e-05
5.16627e-05
5.16031e-05
5.17158e-05
5.1646e-05
5.32207e-05
5.39504e-05
5.16081e-05
5.16565e-05
5.16427e-05
5.37804e-05
5.43739e-05
5.62104e-05
5.2151e-05
5.2101e-05
5.40849e-05
5.40566e-05
5.43215e-05
5.61871e-05
5.2213e-05
5.22495e-05
5.4128e-05
5.41664e-05
5.20029e-05
5.40736e-05
5.40166e-05
5.44064e-05
5.62595e-05
5.19871e-05
5.41264e-05
5.40062e-05
5.61402e-05
5.64189e-05
5.63808e-05
5.44469e-05
5.44321e-05
5.47311e-05
5.47372e-05
5.64038e-05
5.64016e-05
5.44851e-05
5.45211e-05
5.47625e-05
5.47902e-05
5.44212e-05
5.47584e-05
5.47719e-05
5.64671e-05
5.6409e-05
5.4413e-05
5.47842e-05
5.47668e-05
5.64785e-05
5.6124e-05
5.29714e-05
5.46099e-05
5.46235e-05
5.20582e-05
5.2084e-05
5.61484e-05
5.29843e-05
5.46365e-05
5.46567e-05
5.20551e-05
5.20385e-05
5.46729e-05
5.20853e-05
5.21372e-05
5.61464e-05
5.29512e-05
5.46698e-05
5.20688e-05
5.21446e-05
5.30367e-05
5.25488e-05
5.093e-05
5.11444e-05
5.1163e-05
4.95004e-05
4.95066e-05
5.25568e-05
5.0921e-05
5.11384e-05
5.11191e-05
4.94921e-05
4.94722e-05
5.11887e-05
4.94827e-05
4.94773e-05
5.2524e-05
5.08973e-05
5.11959e-05
4.94696e-05
4.94804e-05
5.08985e-05
5.09254e-05
5.23371e-05
4.93376e-05
4.93419e-05
4.97911e-05
4.97899e-05
5.09157e-05
5.23264e-05
4.93304e-05
4.93118e-05
4.97952e-05
4.97892e-05
4.93033e-05
4.97694e-05
4.9727e-05
5.08931e-05
5.23251e-05
4.93045e-05
4.97597e-05
4.97177e-05
5.22697e-05
5.2905e-05
5.57779e-05
5.07111e-05
5.07108e-05
5.35894e-05
5.35983e-05
5.28974e-05
5.57863e-05
5.07195e-05
5.07203e-05
5.35965e-05
5.36061e-05
5.06506e-05
5.3599e-05
5.35771e-05
5.28985e-05
5.57883e-05
5.06381e-05
5.35941e-05
5.35697e-05
5.5764e-05
5.64328e-05
5.97894e-05
5.462e-05
5.46304e-05
5.77545e-05
5.77651e-05
5.64431e-05
5.98009e-05
5.46266e-05
5.46372e-05
5.77589e-05
5.77676e-05
5.46187e-05
5.77722e-05
5.7772e-05
5.64446e-05
5.98001e-05
5.46125e-05
5.77681e-05
5.77687e-05
5.98043e-05
6.03494e-05
6.23128e-05
5.86862e-05
5.86958e-05
6.05635e-05
6.05692e-05
6.03605e-05
6.23193e-05
5.869e-05
5.86969e-05
6.05651e-05
6.05665e-05
5.87064e-05
6.05771e-05
6.05849e-05
6.03592e-05
6.23166e-05
5.8704e-05
6.05746e-05
6.05845e-05
6.2333e-05
6.24127e-05
6.05534e-05
6.07966e-05
6.08011e-05
6.03217e-05
6.0321e-05
6.24185e-05
6.0552e-05
6.07976e-05
6.07975e-05
6.03202e-05
6.03141e-05
6.08169e-05
6.03272e-05
6.03336e-05
6.24155e-05
6.05485e-05
6.08171e-05
6.03266e-05
6.03367e-05
6.05631e-05
5.97857e-05
5.49598e-05
5.90226e-05
5.90177e-05
5.45298e-05
5.45258e-05
5.97839e-05
5.49574e-05
5.90191e-05
5.9009e-05
5.45275e-05
5.45224e-05
5.90266e-05
5.45301e-05
5.45313e-05
5.97804e-05
5.49573e-05
5.90316e-05
5.45309e-05
5.45347e-05
5.49626e-05
5.43318e-05
5.13531e-05
5.32249e-05
5.32211e-05
5.03141e-05
5.03116e-05
5.43297e-05
5.13518e-05
5.32229e-05
5.3219e-05
5.03122e-05
5.03112e-05
5.32259e-05
5.03142e-05
5.03146e-05
5.43296e-05
5.13528e-05
5.32289e-05
5.03148e-05
5.03158e-05
5.13544e-05
5.11443e-05
5.05718e-05
4.9716e-05
4.97141e-05
4.89314e-05
4.89308e-05
5.11433e-05
5.05716e-05
4.97142e-05
4.97139e-05
4.89297e-05
4.89304e-05
4.97167e-05
4.89318e-05
4.89325e-05
5.11441e-05
5.05721e-05
4.97173e-05
4.89319e-05
4.89318e-05
5.05728e-05
5.06536e-05
5.18415e-05
4.8918e-05
4.89176e-05
4.98034e-05
4.98048e-05
5.06536e-05
5.18421e-05
4.89163e-05
4.89172e-05
4.98024e-05
4.98038e-05
4.89192e-05
4.9805e-05
4.98054e-05
5.06539e-05
5.18422e-05
4.89183e-05
4.98048e-05
4.98041e-05
5.18428e-05
5.21478e-05
5.32525e-05
5.02894e-05
5.02908e-05
5.13952e-05
5.13964e-05
5.21485e-05
5.32531e-05
5.02888e-05
5.02897e-05
5.13951e-05
5.13952e-05
5.02915e-05
5.13975e-05
5.13976e-05
5.21485e-05
5.3253e-05
5.02905e-05
5.13975e-05
5.13972e-05
5.32542e-05
5.34301e-05
5.39083e-05
5.16432e-05
5.16443e-05
5.20616e-05
5.20624e-05
5.34306e-05
5.39086e-05
5.16434e-05
5.16432e-05
5.2062e-05
5.20614e-05
5.16457e-05
5.20639e-05
5.20642e-05
5.34305e-05
5.39083e-05
5.16456e-05
5.20642e-05
5.20644e-05
5.391e-05
5.39817e-05
5.41179e-05
5.213e-05
5.21307e-05
5.22179e-05
5.22185e-05
5.39819e-05
5.41183e-05
5.21305e-05
5.21298e-05
5.22182e-05
5.22177e-05
5.21327e-05
5.22203e-05
5.22205e-05
5.39816e-05
5.4118e-05
5.21329e-05
5.22205e-05
5.22208e-05
5.41196e-05
5.41507e-05
5.41837e-05
5.22316e-05
5.22321e-05
5.224e-05
5.22405e-05
5.41511e-05
5.41839e-05
5.22319e-05
5.22314e-05
5.22403e-05
5.22397e-05
5.22342e-05
5.22423e-05
5.22426e-05
5.41508e-05
5.41837e-05
5.22345e-05
5.22426e-05
5.22429e-05
5.41854e-05
5.42021e-05
5.42001e-05
5.22399e-05
5.22403e-05
5.2233e-05
5.22334e-05
5.42024e-05
5.42003e-05
5.22401e-05
5.22395e-05
5.22333e-05
5.22326e-05
5.22425e-05
5.22353e-05
5.22356e-05
5.42021e-05
5.42001e-05
5.22428e-05
5.22356e-05
5.22359e-05
5.42019e-05
5.42149e-05
5.41892e-05
5.2231e-05
5.22314e-05
5.22125e-05
5.22129e-05
5.42151e-05
5.41894e-05
5.22314e-05
5.22306e-05
5.22129e-05
5.2212e-05
5.22337e-05
5.22148e-05
5.22152e-05
5.42148e-05
5.4189e-05
5.22339e-05
5.22151e-05
5.22153e-05
5.41908e-05
5.42014e-05
5.41753e-05
5.22099e-05
5.22103e-05
5.22023e-05
5.22028e-05
5.42016e-05
5.41756e-05
5.22103e-05
5.22094e-05
5.22027e-05
5.22019e-05
5.22126e-05
5.22047e-05
5.2205e-05
5.42012e-05
5.41753e-05
5.22127e-05
5.2205e-05
5.22052e-05
5.4177e-05
5.4191e-05
5.41925e-05
5.22047e-05
5.22051e-05
5.2205e-05
5.22054e-05
5.41913e-05
5.41929e-05
5.22051e-05
5.22043e-05
5.22054e-05
5.22045e-05
5.22073e-05
5.22073e-05
5.22076e-05
5.4191e-05
5.41924e-05
5.22075e-05
5.22075e-05
5.22077e-05
5.41941e-05
5.42088e-05
5.4181e-05
5.22076e-05
5.22081e-05
5.22024e-05
5.22028e-05
5.42092e-05
5.4181e-05
5.2208e-05
5.22071e-05
5.22028e-05
5.22019e-05
5.22102e-05
5.22047e-05
5.2205e-05
5.42086e-05
5.41807e-05
5.22103e-05
5.22049e-05
5.22051e-05
5.41825e-05
5.4194e-05
5.41817e-05
5.22053e-05
5.22057e-05
5.22017e-05
5.22021e-05
5.4194e-05
5.41822e-05
5.22057e-05
5.22048e-05
5.22021e-05
5.22013e-05
5.22079e-05
5.2204e-05
5.22043e-05
5.41937e-05
5.41819e-05
5.2208e-05
5.22043e-05
5.22044e-05
5.41834e-05
5.41991e-05
5.41863e-05
5.22074e-05
5.22078e-05
5.22005e-05
5.2201e-05
5.41996e-05
5.41864e-05
5.22078e-05
5.2207e-05
5.22009e-05
5.22001e-05
5.22099e-05
5.22029e-05
5.22031e-05
5.41993e-05
5.41859e-05
5.22101e-05
5.2203e-05
5.22032e-05
5.41876e-05
5.41969e-05
5.40204e-05
5.21912e-05
5.21916e-05
5.20447e-05
5.20455e-05
5.4197e-05
5.4021e-05
5.21916e-05
5.21906e-05
5.20464e-05
5.20435e-05
5.21935e-05
5.20489e-05
5.20468e-05
5.41964e-05
5.40203e-05
5.21937e-05
5.20477e-05
5.20482e-05
5.40218e-05
5.38792e-05
5.11105e-05
5.11112e-05
5.38801e-05
5.11124e-05
5.11093e-05
4.13402e-05
4.1339e-05
4.13409e-05
5.11125e-05
5.38792e-05
5.11142e-05
1.47274e-06
2.89675e-07
8.94234e-07
8.91856e-07
1.08547e-07
3.37405e-07
4.35621e-07
4.64729e-07
1.012e-07
3.20753e-07
4.68394e-07
2.22055e-07
3.65227e-07
2.73143e-07
2.71746e-07
3.03053e-07
4.9517e-06
2.62061e-07
6.62662e-06
1.36055e-05
2.11435e-05
3.01562e-07
4.95928e-06
2.68965e-07
6.64315e-06
4.81122e-07
4.8179e-07
4.90225e-07
4.77875e-07
4.76502e-07
4.76637e-07
4.8527e-07
1.06749e-07
6.86545e-07
2.64399e-07
3.31446e-07
1.08022e-07
6.57896e-07
2.61122e-07
1.40602e-05
2.17931e-05
1.02709e-07
2.43282e-07
5.41989e-07
2.78089e-07
1.0103e-07
2.40704e-07
5.22683e-07
1.89887e-06
1.89445e-06
3.4988e-07
1.87737e-06
1.87612e-06
4.99283e-07
9.77277e-06
4.14039e-07
1.24947e-05
3.62053e-05
4.61598e-05
4.85957e-07
9.78588e-06
4.11692e-07
1.24694e-05
4.76605e-07
4.76801e-07
4.85463e-07
4.78398e-07