/*--------------------------------*- C++ -*----------------------------------*\
| =========                 |                                                 |
| \\      /  F ield         | OpenFOAM: The Open Source CFD Toolbox           |
|  \\    /   O peration     | Version:  v1906                                 |
|   \\  /    A nd           | Web:      www.OpenFOAM.com                      |
|    \\/     M anipulation  |                                                 |
\*---------------------------------------------------------------------------*/
FoamFile
{
    version     2.0;
    format      ascii;
    class       volScalarField;
    location    "325";
    object      nut;
}
// * * * * * * * * * * * * * * * * * * * * * * * * * * * * * * * * * * * * * //

dimensions      [0 2 -1 0 0 0 0];


internalField   nonuniform List<scalar> 
171728
(
6.41364e-06
2.14817e-06
2.13489e-06
2.25913e-06
6.33545e-06
2.11848e-06
2.07028e-06
2.23744e-06
6.44173e-06
2.10988e-06
2.01388e-06
2.19918e-06
6.55459e-06
2.11177e-06
1.937e-06
2.16014e-06
6.67409e-06
2.11371e-06
1.8706e-06
2.11955e-06
6.79734e-06
2.10532e-06
1.8306e-06
2.08646e-06
6.93069e-06
2.09586e-06
1.80453e-06
2.07685e-06
7.07402e-06
2.07311e-06
1.77345e-06
2.15497e-06
7.22298e-06
2.05833e-06
1.72228e-06
2.37762e-06
7.37584e-06
1.9998e-06
1.64419e-06
2.55e-06
7.54577e-06
1.92499e-06
1.56913e-06
2.67158e-06
7.71408e-06
1.8682e-06
1.49363e-06
2.11176e-06
7.87368e-06
1.79986e-06
1.41376e-06
1.78786e-06
8.04176e-06
1.71375e-06
1.3362e-06
1.61516e-06
8.18245e-06
1.61253e-06
1.31238e-06
1.48935e-06
8.34297e-06
1.49726e-06
1.29679e-06
1.37124e-06
8.46528e-06
1.39648e-06
1.27676e-06
1.2799e-06
8.60289e-06
1.33056e-06
1.56134e-06
1.21925e-06
8.71795e-06
1.2925e-06
2.00265e-06
1.19255e-06
8.81042e-06
1.38218e-06
2.33793e-06
1.30531e-06
8.89547e-06
1.55233e-06
2.48235e-06
1.82412e-06
8.9685e-06
1.79387e-06
2.46449e-06
2.32549e-06
8.99838e-06
2.22543e-06
2.70935e-06
3.72099e-06
8.97199e-06
3.19996e-06
3.63655e-06
5.50615e-06
8.94925e-06
4.06265e-06
4.02884e-06
8.29952e-06
8.7698e-06
5.42814e-06
5.69175e-06
1.29667e-05
8.69604e-06
7.30613e-06
7.26556e-06
1.77939e-05
8.33065e-06
8.76751e-06
8.78785e-06
2.3903e-05
8.25323e-06
1.26165e-05
1.20039e-05
3.16263e-05
7.9352e-06
1.44358e-05
1.47468e-05
3.81397e-05
7.70482e-06
1.86373e-05
1.78758e-05
4.55528e-05
7.87188e-06
2.21476e-05
2.21117e-05
5.29608e-05
7.44717e-06
2.88732e-05
2.6748e-05
5.89533e-05
8.56718e-06
3.01249e-05
2.99324e-05
6.46592e-05
7.63703e-06
3.45076e-05
3.7274e-05
7.01495e-05
9.44473e-06
4.417e-05
4.23877e-05
7.52578e-05
9.44958e-06
4.45607e-05
4.52733e-05
7.95926e-05
1.24967e-05
5.51822e-05
5.79259e-05
8.41873e-05
1.10398e-05
5.64026e-05
5.97671e-05
8.79077e-05
1.60802e-05
6.95622e-05
6.26753e-05
9.27734e-05
1.59775e-05
6.90258e-05
7.42691e-05
9.40634e-05
2.00937e-05
7.52792e-05
7.76151e-05
0.000102114
2.21366e-05
9.07384e-05
8.50724e-05
0.00010461
2.75273e-05
8.93979e-05
8.75177e-05
0.000105119
2.76012e-05
9.62108e-05
9.65559e-05
0.000112656
3.79653e-05
9.81411e-05
0.000100974
0.000115161
3.71843e-05
0.00010987
0.000106736
0.000118533
4.83739e-05
0.000110924
0.000114432
0.000122969
4.89376e-05
0.0001148
0.000112403
0.000124356
5.72028e-05
0.00012713
0.000124874
0.000132067
6.99149e-05
0.000128034
0.000129262
0.000133207
6.57344e-05
0.000126623
0.000127642
0.000133775
7.90034e-05
0.000138146
0.000138044
0.000140916
8.53384e-05
0.000139602
0.000139925
0.00014207
9.36848e-05
0.000146152
0.000145452
0.000145731
9.28804e-05
0.000147244
0.000147791
0.000147563
0.000107989
0.000153589
0.000154283
0.000152317
0.000110908
0.000157784
0.000157451
0.00015292
0.000118824
0.000159815
0.000159933
0.000156781
0.000125031
0.000166167
0.000166086
0.000159998
0.000131164
0.00016958
0.000168416
0.000160893
0.000140696
0.000169006
0.000172299
0.00016493
0.000143492
0.000177175
0.000173309
0.000165527
0.000149694
0.000178872
0.000180836
0.000170582
0.000156215
0.000181775
0.000180934
0.000169982
0.000164111
0.000184901
0.000185233
0.000173911
0.000165285
0.000186361
0.000187523
0.000174502
0.000175617
0.000193369
0.000193157
0.000179538
0.000179831
0.000192053
0.000191391
0.000176411
0.000175444
0.000191953
0.000192059
0.000177795
0.000198061
0.000207998
0.000208298
0.000190491
0.00021369
0.000216108
0.000216291
0.000195278
0.000205125
0.000197226
0.000197134
0.000179093
0.000179265
0.000183372
0.000183296
0.000167374
0.000167423
0.000185632
0.000185592
0.000172158
0.000198962
0.000204716
0.000204692
0.000185634
0.000237545
0.00022804
0.000228014
0.000203571
0.000267603
0.000245963
0.000245937
0.000218331
0.00028492
0.000246377
0.000246369
0.000213974
0.000239424
0.000213835
0.000213832
0.000190364
0.000196641
0.000193371
0.000193367
0.00017502
0.00017965
0.00018853
0.000188523
0.000171564
0.000187876
0.000197195
0.000197184
0.000178511
0.000214034
0.000206748
0.000206738
0.000184774
0.000226916
0.000210541
0.000210532
0.0001873
0.000231896
0.000211523
0.000211513
0.000187965
0.000233759
0.000211729
0.000211719
0.000188131
0.000234351
0.000211739
0.00021173
0.000188185
0.000234382
0.000211621
0.000211611
0.000188119
0.000234355
0.000211579
0.000211569
0.000188029
0.000234382
0.0002116
0.000211589
0.000188134
0.000234372
0.000211584
0.000211574
0.000188068
0.00023437
0.000211591
0.000211581
0.000188072
0.000234341
0.000211513
0.000211502
0.000188114
0.000236307
0.000212857
0.00021285
0.000191556
2.41738e-06
2.63177e-06
2.34204e-06
2.25513e-06
2.5315e-06
2.62502e-06
6.62221e-06
6.58428e-06
6.68448e-06
6.52017e-06
2.39989e-06
2.12458e-06
2.38591e-06
2.5152e-06
2.46966e-06
2.25879e-06
2.41626e-06
2.39591e-06
2.2455e-06
2.37189e-06
2.22732e-06
2.38174e-06
2.25176e-06
2.24146e-06
2.21754e-06
2.30721e-06
2.19688e-06
2.28245e-06
1.91214e-06
2.12347e-06
1.86258e-06
2.38369e-06
2.36419e-06
2.21104e-06
2.08291e-06
2.18081e-06
2.2359e-06
2.39444e-06
2.37127e-06
2.22302e-06
2.396e-06
2.21082e-06
2.4077e-06
2.22895e-06
2.24125e-06
2.19376e-06
2.27685e-06
2.18578e-06
2.26447e-06
1.8507e-06
2.11186e-06
1.83444e-06
2.36188e-06
2.33642e-06
2.17709e-06
2.02794e-06
2.17682e-06
2.20415e-06
2.36941e-06
2.34838e-06
2.20718e-06
2.39389e-06
2.20034e-06
2.32588e-06
2.23253e-06
2.25047e-06
2.18357e-06
2.26154e-06
2.17786e-06
2.25298e-06
1.8355e-06
2.11171e-06
1.8459e-06
2.33319e-06
2.30349e-06
2.17901e-06
1.95927e-06
2.18117e-06
2.1655e-06
2.34606e-06
2.32588e-06
2.1998e-06
2.29389e-06
2.19651e-06
2.193e-06
2.24272e-06
2.24866e-06
2.17468e-06
2.24941e-06
2.16764e-06
2.24217e-06
1.85701e-06
2.11486e-06
1.90315e-06
2.30054e-06
2.28257e-06
2.17692e-06
1.88335e-06
2.14848e-06
2.12625e-06
2.32328e-06
2.30506e-06
2.19542e-06
2.16728e-06
2.19282e-06
2.1212e-06
2.23713e-06
2.22164e-06
2.16462e-06
2.23963e-06
2.15827e-06
2.2311e-06
1.92202e-06
2.10732e-06
2.00749e-06
2.28057e-06
2.27542e-06
2.13972e-06
1.83929e-06
2.13509e-06
2.09147e-06
2.30174e-06
2.27914e-06
2.19099e-06
2.11307e-06
2.18403e-06
2.09107e-06
2.21133e-06
2.18575e-06
2.15449e-06
2.22828e-06
2.13959e-06
2.21456e-06
2.04454e-06
2.10129e-06
2.16244e-06
2.27318e-06
2.26798e-06
2.13564e-06
1.80958e-06
2.13017e-06
2.08822e-06
2.27378e-06
2.23935e-06
2.17984e-06
2.08417e-06
2.16247e-06
2.05811e-06
2.1803e-06
2.14456e-06
2.13511e-06
2.20774e-06
2.11351e-06
2.18176e-06
2.21711e-06
2.07866e-06
2.43086e-06
2.2645e-06
2.24566e-06
2.12734e-06
1.7844e-06
2.10556e-06
2.15303e-06
2.23225e-06
2.18998e-06
2.15432e-06
2.04843e-06
2.11914e-06
2.01858e-06
2.13719e-06
2.09685e-06
2.10304e-06
2.17098e-06
2.06842e-06
2.13269e-06
2.5197e-06
2.06414e-06
3.0384e-06
2.24014e-06
2.19713e-06
2.09039e-06
1.73603e-06
2.0435e-06
2.36982e-06
2.1816e-06
2.13357e-06
2.10379e-06
2.00766e-06
2.05547e-06
1.96149e-06
2.08904e-06
2.04321e-06
2.05554e-06
2.11732e-06
2.00952e-06
2.07217e-06
3.31024e-06
2.01825e-06
4.19787e-06
2.18895e-06
2.11317e-06
2.03063e-06
1.66568e-06
2.00366e-06
2.55172e-06
2.12383e-06
2.0674e-06
2.03964e-06
1.94464e-06
1.99301e-06
1.89506e-06
2.03294e-06
1.97252e-06
1.99336e-06
2.05757e-06
1.93977e-06
2.01093e-06
4.44262e-06
1.94283e-06
4.91393e-06
2.10265e-06
2.01393e-06
1.99583e-06
1.58607e-06
1.97632e-06
2.6982e-06
2.05681e-06
1.99163e-06
1.97419e-06
1.87649e-06
1.91705e-06
1.82354e-06
1.9612e-06
1.89709e-06
1.92228e-06
1.99639e-06
1.86461e-06
1.9465e-06
4.69478e-06
1.88185e-06
3.19634e-06
2.00269e-06
1.91016e-06
1.96318e-06
1.51566e-06
1.90395e-06
2.15771e-06
1.97903e-06
1.90528e-06
1.89929e-06
1.80392e-06
1.83051e-06
1.74605e-06
1.88355e-06
1.81211e-06
1.84599e-06
1.9299e-06
1.78608e-06
1.87657e-06
2.77432e-06
1.81909e-06
1.84789e-06
1.89699e-06
1.80335e-06
1.88113e-06
1.43375e-06
1.81515e-06
1.81462e-06
1.88839e-06
1.80411e-06
1.80521e-06
1.72284e-06
1.72921e-06
1.6572e-06
1.79474e-06
1.71964e-06
1.7654e-06
1.85301e-06
1.69736e-06
1.77093e-06
1.64495e-06
1.73703e-06
1.28938e-06
1.78632e-06
1.68396e-06
1.79171e-06
1.357e-06
1.71005e-06
1.63521e-06
1.78192e-06
1.68906e-06
1.70402e-06
1.63457e-06
1.62332e-06
1.56009e-06
1.69896e-06
1.61353e-06
1.67204e-06
1.74311e-06
1.59322e-06
1.65308e-06
1.23007e-06
1.63953e-06
1.13417e-06
1.66232e-06
1.5712e-06
1.681e-06
1.30886e-06
1.59804e-06
1.51321e-06
1.66023e-06
1.56718e-06
1.59599e-06
1.53504e-06
1.51305e-06
1.46479e-06
1.58648e-06
1.50476e-06
1.56927e-06
1.62087e-06
1.49202e-06
1.53693e-06
1.11501e-06
1.52606e-06
1.09181e-06
1.54627e-06
1.47584e-06
1.57101e-06
1.31034e-06
1.49165e-06
1.39625e-06
1.53405e-06
1.44663e-06
1.48758e-06
1.44168e-06
1.4136e-06
1.37014e-06
1.47504e-06
1.39617e-06
1.46643e-06
1.5091e-06
1.39017e-06
1.44064e-06
1.0817e-06
1.42318e-06
1.05423e-06
1.44778e-06
1.39399e-06
1.46605e-06
1.27117e-06
1.40789e-06
1.29753e-06
1.41582e-06
1.34901e-06
1.38575e-06
1.34542e-06
1.34069e-06
1.29754e-06
1.36609e-06
1.31275e-06
1.36768e-06
1.41511e-06
1.33434e-06
1.36456e-06
1.04243e-06
1.3476e-06
1.04506e-06
1.37113e-06
1.37661e-06
1.38264e-06
1.47793e-06
1.34016e-06
1.21983e-06
1.33436e-06
1.2889e-06
1.31595e-06
1.28345e-06
1.30096e-06
1.27077e-06
1.29584e-06
1.27932e-06
1.31221e-06
1.35637e-06
1.29574e-06
1.32834e-06
1.0484e-06
1.3081e-06
1.04763e-06
1.38491e-06
1.45233e-06
1.33062e-06
1.88203e-06
1.2909e-06
1.18577e-06
1.32397e-06
1.36726e-06
1.30976e-06
1.25569e-06
1.34137e-06
1.34955e-06
1.28482e-06
1.37884e-06
1.30138e-06
1.32901e-06
1.3294e-06
1.3946e-06
1.08781e-06
1.37286e-06
1.12256e-06
1.48183e-06
1.65032e-06
1.31857e-06
2.3166e-06
1.30946e-06
1.31842e-06
1.40681e-06
1.63592e-06
1.35906e-06
1.36114e-06
1.48125e-06
1.42416e-06
1.46017e-06
1.49519e-06
1.34833e-06
1.40409e-06
1.48244e-06
1.51087e-06
1.15155e-06
1.44065e-06
1.35876e-06
1.68964e-06
1.85157e-06
1.32835e-06
2.4062e-06
1.51058e-06
1.74376e-06
1.7762e-06
2.19222e-06
1.53868e-06
1.53963e-06
1.75246e-06
1.70003e-06
1.61168e-06
2.39504e-06
1.53722e-06
1.55765e-06
1.75522e-06
1.77906e-06
1.38324e-06
1.70323e-06
1.61194e-06
1.96757e-06
2.54474e-06
1.51756e-06
2.55136e-06
1.70172e-06
2.03544e-06
2.38022e-06
3.32249e-06
1.85363e-06
1.79456e-06
2.1557e-06
2.18027e-06
2.41438e-06
3.54245e-06
1.86059e-06
1.85967e-06
2.14215e-06
2.2391e-06
1.7781e-06
2.17176e-06
2.12373e-06
2.70019e-06
3.33465e-06
1.87019e-06
2.66008e-06
2.20494e-06
3.63113e-06
3.49473e-06
5.4749e-06
2.3929e-06
2.23248e-06
2.74506e-06
3.01139e-06
3.88889e-06
4.99413e-06
2.37291e-06
2.35066e-06
2.76953e-06
2.82708e-06
2.1859e-06
2.97922e-06
2.82704e-06
3.70419e-06
4.94995e-06
2.26539e-06
3.21704e-06
2.84706e-06
4.84941e-06
5.67627e-06
8.08875e-06
2.83582e-06
3.23751e-06
4.13531e-06
3.69237e-06
5.89679e-06
7.46891e-06
2.85298e-06
3.1799e-06
4.13606e-06
3.78677e-06
3.08947e-06
3.66709e-06
3.71112e-06
5.35657e-06
8.66588e-06
3.1194e-06
4.03488e-06
3.73181e-06
7.88672e-06
9.5865e-06
1.06623e-05
4.37187e-06
4.11998e-06
4.84488e-06
5.1694e-06
7.54709e-06
1.30678e-05
4.38022e-06
3.94915e-06
4.84832e-06
5.23995e-06
4.0361e-06
5.15999e-06
5.1117e-06
8.67484e-06
1.17467e-05
4.05819e-06
5.39964e-06
5.09582e-06
1.21002e-05
1.05183e-05
1.88463e-05
5.29624e-06
5.41363e-06
7.01261e-06
6.74557e-06
1.36304e-05
1.65392e-05
5.36725e-06
5.67829e-06
6.89408e-06
6.44023e-06
5.46027e-06
6.63662e-06
6.70784e-06
1.31951e-05
1.66318e-05
5.46343e-06
6.52701e-06
6.66691e-06
1.66269e-05
1.96206e-05
2.34176e-05
7.60716e-06
7.38913e-06
8.33898e-06
8.62906e-06
1.82339e-05
2.26201e-05
7.47783e-06
7.02633e-06
8.41384e-06
9.11801e-06
7.16249e-06
8.65051e-06
8.80478e-06
1.73853e-05
2.36772e-05
7.03926e-06
8.78255e-06
8.87583e-06
2.26934e-05
2.48605e-05
2.85166e-05
8.74767e-06
8.81851e-06
1.16661e-05
1.15181e-05
2.34294e-05
2.95908e-05
8.79635e-06
9.21157e-06
1.15839e-05
1.10489e-05
9.44589e-06
1.13861e-05
1.10606e-05
2.53988e-05
2.75624e-05
9.57818e-06
1.11087e-05
1.08883e-05
3.05132e-05
3.12278e-05
3.76171e-05
1.24072e-05
1.26575e-05
1.36862e-05
1.35081e-05
3.08974e-05
3.90813e-05
1.23257e-05
1.22603e-05
1.36822e-05
1.39394e-05
1.17857e-05
1.35398e-05
1.39444e-05
2.87826e-05
3.96619e-05
1.17567e-05
1.40078e-05
1.38634e-05
3.63071e-05
3.75412e-05
4.4363e-05
1.44598e-05
1.44533e-05
1.72745e-05
1.85925e-05
4.04493e-05
4.33719e-05
1.44565e-05
1.45218e-05
1.73708e-05
1.76835e-05
1.44611e-05
1.8424e-05
1.82009e-05
4.06579e-05
4.27767e-05
1.44112e-05
1.70212e-05
1.78829e-05
4.46221e-05
4.68245e-05
5.09404e-05
1.82885e-05
1.88043e-05
2.1889e-05
1.93374e-05
4.55564e-05
4.93766e-05
1.82804e-05
1.84241e-05
2.17841e-05
2.10316e-05
1.94718e-05
1.93774e-05
1.99204e-05
4.48886e-05
5.13885e-05
1.89036e-05
2.1264e-05
2.03734e-05
5.17239e-05
5.21807e-05
5.72996e-05
2.25327e-05
2.22324e-05
2.4178e-05
2.87739e-05
5.08891e-05
6.21564e-05
2.28956e-05
2.2349e-05
2.41913e-05
2.53371e-05
2.1066e-05
2.87354e-05
2.64531e-05
5.23199e-05
5.78192e-05
2.14433e-05
2.52448e-05
2.60236e-05
5.68029e-05
5.81273e-05
6.50749e-05
2.59266e-05
2.88725e-05
3.22618e-05
2.78913e-05
6.28072e-05
6.06305e-05
2.51431e-05
2.6398e-05
3.18312e-05
3.02549e-05
2.71465e-05
2.77677e-05
2.98845e-05
5.93568e-05
6.28286e-05
2.68302e-05
2.9406e-05
2.97587e-05
6.41482e-05
6.65341e-05
6.76568e-05
3.30218e-05
3.01337e-05
3.2239e-05
3.39871e-05
6.08435e-05
7.02828e-05
3.33743e-05
3.08521e-05
3.31356e-05
3.36211e-05
3.17958e-05
3.38458e-05
3.4616e-05
6.37652e-05
6.87715e-05
3.15827e-05
3.46569e-05
3.44352e-05
6.87665e-05
6.82595e-05
7.35557e-05
3.33884e-05
3.48746e-05
4.2163e-05
4.21418e-05
7.13498e-05
7.40862e-05
3.39874e-05
3.60954e-05
4.09319e-05
4.35365e-05
3.47697e-05
4.19225e-05
4.05972e-05
7.08e-05
7.51968e-05
3.46903e-05
4.24023e-05
4.04797e-05
7.37027e-05
7.51953e-05
7.92799e-05
4.31169e-05
4.37754e-05
4.41923e-05
4.38924e-05
7.54052e-05
7.85437e-05
4.17289e-05
4.41416e-05
4.45969e-05
4.23452e-05
4.36469e-05
4.44736e-05
4.68409e-05
7.54543e-05
7.60882e-05
4.34309e-05
4.32302e-05
4.65842e-05
7.9e-05
8.01908e-05
8.37759e-05
4.6861e-05
4.55607e-05
5.51096e-05
5.41032e-05
7.93867e-05
8.31512e-05
4.72538e-05
4.28701e-05
5.50839e-05
5.48485e-05
4.62977e-05
5.36809e-05
5.17404e-05
7.76178e-05
8.56967e-05
4.60429e-05
5.50619e-05
5.10768e-05
8.27493e-05
8.4482e-05
8.56275e-05
5.57669e-05
5.5003e-05
5.40387e-05
5.39712e-05
8.38057e-05
8.61793e-05
5.57099e-05
5.76883e-05
5.3774e-05
5.89497e-05
5.51062e-05
5.45972e-05
5.73146e-05
8.67086e-05
8.6817e-05
5.46543e-05
6.05291e-05
5.85675e-05
8.71455e-05
8.63168e-05
9.24873e-05
5.52722e-05
5.61192e-05
6.6925e-05
6.7378e-05
8.80442e-05
9.39251e-05
5.453e-05
5.80094e-05
6.61103e-05
6.08628e-05
5.70687e-05
6.70356e-05
6.5412e-05
8.68568e-05
8.98467e-05
5.80114e-05
5.8447e-05
6.3751e-05
9.18188e-05
9.33696e-05
9.50846e-05
6.81396e-05
7.00057e-05
6.79112e-05
7.09882e-05
9.43198e-05
9.2751e-05
6.69218e-05
6.5532e-05
6.89941e-05
7.07316e-05
6.8164e-05
7.02231e-05
6.86218e-05
9.18346e-05
9.618e-05
6.70373e-05
7.36037e-05
6.88492e-05
9.35411e-05
9.591e-05
9.87601e-05
7.09981e-05
6.98387e-05
7.54011e-05
6.84653e-05
9.27051e-05
9.76858e-05
7.2106e-05
7.04735e-05
7.71606e-05
7.46992e-05
6.7954e-05
6.9092e-05
7.58344e-05
9.66121e-05
9.89395e-05
6.84705e-05
7.49605e-05
7.58027e-05
0.000100641
9.92026e-05
0.000103283
7.54904e-05
7.43019e-05
8.28072e-05
8.87922e-05
0.000100372
0.000107195
7.6607e-05
7.81058e-05
8.04533e-05
8.49582e-05
7.98508e-05
8.89158e-05
8.71121e-05
0.000100156
0.000103632
7.94696e-05
8.49642e-05
8.62831e-05
0.000104452
0.000104744
0.000106781
8.60003e-05
9.10113e-05
8.81499e-05
9.15054e-05
0.000107598
0.000107058
8.43404e-05
8.47275e-05
8.99979e-05
8.43595e-05
8.73919e-05
9.03383e-05
8.51008e-05
0.00010391
0.000105045
8.64302e-05
8.45434e-05
8.44751e-05
0.000104651
0.000106864
0.000110052
8.74135e-05
9.05649e-05
9.25792e-05
9.15842e-05
0.000107132
0.000110241
8.94871e-05
8.78684e-05
9.11927e-05
9.48223e-05
8.47813e-05
9.37458e-05
9.33462e-05
0.000106351
0.000111723
8.52956e-05
9.45862e-05
9.3769e-05
0.000111392
0.000111595
0.000115
9.64311e-05
9.55995e-05
0.000102615
9.82928e-05
0.000111618
0.000113331
9.47181e-05
9.65639e-05
0.000101239
0.000100532
9.65318e-05
9.68332e-05
0.000101673
0.000112333
0.000114189
9.68283e-05
0.000100663
0.000101778
0.000115007
0.0001153
0.000117809
0.000102374
9.89506e-05
0.000102751
0.000106458
0.000113979
0.000119794
0.000101442
0.000100882
0.000103862
0.000103982
0.000101669
0.00010715
0.000103339
0.000114661
0.000118301
0.000101782
0.000104122
0.000102858
0.000117416
0.000118961
0.000122377
0.000105741
0.000109225
0.00011323
0.000111618
0.000120699
0.000120767
0.000106392
0.000106581
0.000113276
0.000113887
0.000105724
0.00011176
0.000113365
0.000119544
0.000123109
0.000104961
0.000113846
0.000113054
0.000122713
0.000122535
0.000123463
0.000113682
0.000110849
0.000112247
0.000111263
0.000120564
0.000123769
0.000113735
0.000114584
0.000112329
0.000112862
0.000114175
0.000111008
0.000112866
0.000123173
0.000122657
0.000114264
0.000112568
0.000113482
0.000123619
0.000124384
0.000131179
0.000113546
0.000114884
0.000123404
0.000124998
0.000125691
0.000132301
0.000113434
0.000112662
0.0001228
0.000121629
0.000113488
0.000125004
0.000122408
0.000123302
0.000130756
0.000114093
0.000121568
0.000122167
0.000130922
0.000132137
0.000132717
0.000126009
0.000127126
0.000127998
0.000128672
0.000132861
0.000132928
0.000125622
0.000124924
0.000128415
0.000129325
0.000125402
0.00012868
0.000129161
0.000132029
0.000133705
0.000125148
0.000129532
0.000129115
0.000133405
0.000132436
0.000133386
0.000127302
0.000128037
0.000125945
0.000125126
0.000132653
0.000132299
0.000127805
0.000128978
0.000126423
0.000127074
0.000128771
0.000125247
0.000126428
0.000133526
0.000133067
0.00012874
0.000126992
0.000126329
0.00013272
0.000135162
0.000139943
0.000129606
0.000126078
0.000136886
0.000137791
0.00013348
0.000140894
0.000129878
0.000128664
0.000135087
0.000135383
0.000127379
0.000137251
0.000136459
0.000134137
0.000140223
0.000127344
0.000136255
0.000136523
0.000140465
0.00014
0.000142619
0.000136884
0.000139243
0.000139916
0.000138775
0.000141265
0.000140922
0.000135633
0.000136995
0.000141249
0.000140764
0.000137934
0.000137779
0.000139489
0.000140711
0.000142202
0.000137694
0.000139978
0.00013951
0.000141678
0.000143734
0.000144743
0.000142055
0.000139366
0.000144121
0.000145195
0.000141333
0.000146119
0.000143139
0.000141012
0.000143952
0.000142865
0.000140291
0.000145792
0.000144205
0.00014249
0.000144206
0.000140586
0.000143284
0.000144092
0.000145221
0.000144436
0.000147058
0.000143612
0.000145321
0.000146275
0.000144869
0.000146242
0.000145911
0.000143293
0.000144627
0.000146083
0.000147732
0.000145318
0.000145592
0.000147073
0.00014506
0.000148017
0.000144977
0.000148045
0.000146924
0.000147127
0.000148775
0.000151899
0.000149506
0.000147594
0.000154058
0.000154177
0.000146763
0.000151896
0.000149313
0.000147912
0.000153665
0.000152338
0.000147897
0.000152884
0.000152984
0.000148078
0.000150647
0.000147886
0.000151666
0.00015319
0.000151624
0.000151774
0.000152644
0.000153873
0.000154419
0.000154701
0.000154325
0.000152089
0.000152878
0.000153577
0.000154592
0.000155322
0.000157078
0.000154431
0.00015624
0.000155679
0.000151884
0.00015409
0.00015475
0.000157777
0.000155638
0.000152958
0.00015374
0.000156452
0.000157182
0.00015664
0.000160163
0.00016145
0.00015376
0.000156599
0.00015683
0.0001567
0.000160165
0.000158328
0.000156086
0.000159793
0.000159138
0.00015389
0.000154903
0.00015571
0.000156952
0.000158991
0.000155879
0.000156524
0.000158597
0.000160087
0.000161391
0.00016359
0.000161461
0.000156571
0.000158296
0.000160898
0.000161214
0.000163747
0.000165196
0.000160574
0.000163863
0.00016541
0.000156382
0.000160037
0.000160831
0.000165887
0.0001654
0.000159804
0.000159375
0.000161432
0.000165413
0.000164187
0.00016749
0.000169883
0.000159541
0.000162887
0.000164606
0.000165086
0.000167172
0.000166695
0.00016629
0.000169729
0.000166461
0.000159988
0.000160895
0.000165803
0.000166564
0.000166366
0.000160506
0.000161689
0.000164952
0.000167944
0.000170116
0.00017194
0.000169228
0.000162823
0.000161777
0.000168672
0.000168828
0.000173342
0.000172724
0.000167098
0.000168168
0.000171577
0.000161908
0.000164539
0.000167716
0.000172247
0.000172617
0.000164662
0.00016539
0.000165779
0.000173087
0.000169813
0.000174276
0.000174816
0.00016232
0.000167312
0.000173979
0.000172773
0.000173582
0.000171893
0.000172296
0.00017575
0.000173445
0.000164439
0.000164259
0.000173169
0.000171748
0.000172604
0.000165098
0.000165746
0.000168329
0.000174924
0.000175938
0.000177686
0.000178426
0.000167769
0.000168821
0.000173459
0.000172884
0.000177361
0.000179382
0.000174899
0.000178909
0.000180199
0.000165122
0.00017011
0.000173058
0.000179911
0.000179843
0.000170284
0.00016873
0.000171278
0.000178302
0.000179068
0.00018134
0.000181858
0.000168918
0.000170992
0.000178329
0.000180122
0.000181777
0.000180673
0.000181
0.000180338
0.000180711
0.000170333
0.000170304
0.000181052
0.000180843
0.00018122
0.000170199
0.000171962
0.000173512
0.000182813
0.000182938
0.000185058
0.000184141
0.000171585
0.000172715
0.000183296
0.000181985
0.000185835
0.000185351
0.00018042
0.000184853
0.000184847
0.000170533
0.000173351
0.000180961
0.000184856
0.00018482
0.000173568
0.000173368
0.000173796
0.000184962
0.000183943
0.000185272
0.000185028
0.000172512
0.000173545
0.000185824
0.000185497
0.000185078
0.000185453
0.000185878
0.000184642
0.000186125
0.000173356
0.000174059
0.000185809
0.000185682
0.000186065
0.000174061
0.000174811
0.000179404
0.000187656
0.000187599
0.000192779
0.000192923
0.000174734
0.000179602
0.000186069
0.00018711
0.000192211
0.000192342
0.000186788
0.000192637
0.000192549
0.000175021
0.000179343
0.000186839
0.000192578
0.000192615
0.000179421
0.000179382
0.000176236
0.00019337
0.000193536
0.000192194
0.000192543
0.000179627
0.000176765
0.000192864
0.000192896
0.000192016
0.000191845
0.000193326
0.000192868
0.000192953
0.000179321
0.000176167
0.000193388
0.000192226
0.000193013
0.000177023
0.000175624
0.000176878
0.000191351
0.000191671
0.000189466
0.000189587
0.000176161
0.000176782
0.000191223
0.000191034
0.000189469
0.000189347
0.000192057
0.000189997
0.000189753
0.000175549
0.000176883
0.000192094
0.000189464
0.000189764
0.000176278
0.000178764
0.000189577
0.000192113
0.00019175
0.000205206
0.000204904
0.00017847
0.000189376
0.000192457
0.000192546
0.000205443
0.000205584
0.000191211
0.000204994
0.000204585
0.000178821
0.000189767
0.000191133
0.000205337
0.000204544
0.000189038
0.000190869
0.000195994
0.000208119
0.000207899
0.00021459
0.000214494
0.000190716
0.000196066
0.000208325
0.000208464
0.000214776
0.000214944
0.000207764
0.000214639
0.000214638
0.000191058
0.000196171
0.00020774
0.000214881
0.000214629
0.000196387
0.000194817
0.000181495
0.000215972
0.000215942
0.000202884
0.000203014
0.000194918
0.000181594
0.000216138
0.000216275
0.000202852
0.000202732
0.000216219
0.00020308
0.000203451
0.000194965
0.000181433
0.000216219
0.000202984
0.000203526
0.00018191
0.000178777
0.000168494
0.000197132
0.000197221
0.000185424
0.000185437
0.000178847
0.000168468
0.000197081
0.000196942
0.000185357
0.00018521
0.000197475
0.000185325
0.000185306
0.000178688
0.00016834
0.000197549
0.000185246
0.000185355
0.000168398
0.000167487
0.000170532
0.00018349
0.000183499
0.000181328
0.000181296
0.000167456
0.000170469
0.000183428
0.000183284
0.000181341
0.000181265
0.000183308
0.00018117
0.000180903
0.000167327
0.000170452
0.000183351
0.000181114
0.000180877
0.000170188
0.000172487
0.000183372
0.000185744
0.000185714
0.00019952
0.000199551
0.000172436
0.000183406
0.000185791
0.000185759
0.000199569
0.000199597
0.000185317
0.000199562
0.000199392
0.000172434
0.000183411
0.000185265
0.000199539
0.000199367
0.000183276
0.000185691
0.000200956
0.000204643
0.000204688
0.00022198
0.00022204
0.000185737
0.000201021
0.000204692
0.00020473
0.000222022
0.00022206
0.00020459
0.000222102
0.000222069
0.00018574
0.00020101
0.000204572
0.000222076
0.000222066
0.000201014
0.000203507
0.000217165
0.000227917
0.000227975
0.000242301
0.000242342
0.000203572
0.000217216
0.000227957
0.000227987
0.00024233
0.000242328
0.000228031
0.000242414
0.000242441
0.000203559
0.000217193
0.000228032
0.000242392
0.000242452
0.000217265
0.000218233
0.000218174
0.00024585
0.000245892
0.00025265
0.000252657
0.00021828
0.00021818
0.000245879
0.000245872
0.000252663
0.000252606
0.000245995
0.00025272
0.000252745
0.000218256
0.000218147
0.000246007
0.000252702
0.000252776
0.000218221
0.00021393
0.000194032
0.000246354
0.000246327
0.000221295
0.00022127
0.000213932
0.000194028
0.000246351
0.000246257
0.000221299
0.000221237
0.000246384
0.000221313
0.0002213
0.0002139
0.000194013
0.000246431
0.000221309
0.000221337
0.00019404
0.000190353
0.00017644
0.000213815
0.00021379
0.000196883
0.000196864
0.00019035
0.000176439
0.00021382
0.000213767
0.000196888
0.000196857
0.000213815
0.000196898
0.000196878
0.000190337
0.000176434
0.000213849
0.000196895
0.000196902
0.000176441
0.000175018
0.0001716
0.000193354
0.000193339
0.000188635
0.000188626
0.000175018
0.000171604
0.000193359
0.000193333
0.000188639
0.000188621
0.000193351
0.000188651
0.000188634
0.000175012
0.000171596
0.00019337
0.000188645
0.000188645
0.000171599
0.000171565
0.000177212
0.000188513
0.000188505
0.000193881
0.000193884
0.00017157
0.000177222
0.000188517
0.000188499
0.000193888
0.000193874
0.000188512
0.000193905
0.000193884
0.000171562
0.000177211
0.000188522
0.000193895
0.000193891
0.000177212
0.000178511
0.000184144
0.00019717
0.000197172
0.000204916
0.000204917
0.000178521
0.000184154
0.00019718
0.000197161
0.00020493
0.000204904
0.000197173
0.000204947
0.000204921
0.00017851
0.000184141
0.000197182
0.000204936
0.000204934
0.000184145
0.000184772
0.000187179
0.000206718
0.000206718
0.000209947
0.000209946
0.000184782
0.000187187
0.000206733
0.000206705
0.000209965
0.000209933
0.000206724
0.000209979
0.000209954
0.00018477
0.000187174
0.000206738
0.00020997
0.00020997
0.000187181
0.000187298
0.000188027
0.000210509
0.000210507
0.000211351
0.000211349
0.000187306
0.000188036
0.000210527
0.000210495
0.000211369
0.000211337
0.000210516
0.000211385
0.000211357
0.000187293
0.000188022
0.000210533
0.000211375
0.000211375
0.000188028
0.000187963
0.000188256
0.000211489
0.000211486
0.00021168
0.000211677
0.000187972
0.000188265
0.000211507
0.000211474
0.000211698
0.000211665
0.000211495
0.000211714
0.000211687
0.000187959
0.000188251
0.000211513
0.000211704
0.000211705
0.000188258
0.000188129
0.000188326
0.000211695
0.000211691
0.000211714
0.00021171
0.000188137
0.000188335
0.000211713
0.00021168
0.000211732
0.000211699
0.000211701
0.000211748
0.000211721
0.000188124
0.000188321
0.00021172
0.000211738
0.000211739
0.000188329
0.000188182
0.000188269
0.000211706
0.000211702
0.000211609
0.000211605
0.000188191
0.000188278
0.000211724
0.00021169
0.000211627
0.000211593
0.000211712
0.000211643
0.000211616
0.000188178
0.000188264
0.000211731
0.000211633
0.000211634
0.000188271
0.000188117
0.000188167
0.000211586
0.000211583
0.000211538
0.000211535
0.000188125
0.000188175
0.000211605
0.000211571
0.000211557
0.000211523
0.000211594
0.000211573
0.000211545
0.000188112
0.000188162
0.000211611
0.000211562
0.000211563
0.000188169
0.000188027
0.000188261
0.000211545
0.000211541
0.000211558
0.000211554
0.000188035
0.000188271
0.000211563
0.000211529
0.000211576
0.000211542
0.000211552
0.000211592
0.000211564
0.000188023
0.000188256
0.000211569
0.000211581
0.000211582
0.000188262
0.000188133
0.000188219
0.000211566
0.000211562
0.000211547
0.000211544
0.000188142
0.000188226
0.000211584
0.00021155
0.000211566
0.000211531
0.000211572
0.000211582
0.000211554
0.000188128
0.000188213
0.00021159
0.000211571
0.000211571
0.00018822
0.000188067
0.000188193
0.00021155
0.000211546
0.000211541
0.000211538
0.000188073
0.000188203
0.000211568
0.000211534
0.00021156
0.000211526
0.000211556
0.000211576
0.000211548
0.000188061
0.000188189
0.000211574
0.000211565
0.000211566
0.000188195
0.000188069
0.000188265
0.000211557
0.000211553
0.000211603
0.0002116
0.000188079
0.000188273
0.000211575
0.000211541
0.000211622
0.000211589
0.000211563
0.000211638
0.00021161
0.000188066
0.000188258
0.000211581
0.000211628
0.000211629
0.000188266
0.000188114
0.000189623
0.000211478
0.000211475
0.000214036
0.000214037
0.00018812
0.000189629
0.000211498
0.000211462
0.000214055
0.000214029
0.000211483
0.000214065
0.000214044
0.000188107
0.00018962
0.000211503
0.000214058
0.000214061
0.000189627
0.000191551
0.000212831
0.000212831
0.000191557
0.000212847
0.000212824
0.000236312
0.000236309
0.000236316
0.000212838
0.000191548
0.000212854
2.47253e-05
2.88311e-06
1.49091e-05
1.48617e-05
6.77344e-07
2.30933e-06
1.64059e-06
7.31477e-06
5.8468e-07
2.38492e-06
7.08952e-06
1.59148e-06
2.25966e-06
1.74653e-06
1.75658e-06
1.06083e-06
1.34844e-05
1.0392e-06
1.52575e-05
1.07434e-05
1.30359e-05
1.08994e-06
1.34946e-05
1.05689e-06
1.52752e-05
6.38985e-06
6.47609e-06
6.31413e-06
6.31266e-06
6.29932e-06
6.37985e-06
6.22294e-06
6.77155e-07
5.02867e-07
2.96652e-06
2.13583e-06
6.80349e-07
6.20815e-07
2.93203e-06
1.09475e-05
1.32288e-05
5.92111e-07
2.74978e-06
3.51475e-07
2.10997e-06
5.73935e-07
2.70948e-06
4.55005e-07
1.50454e-06
1.49693e-06
2.24348e-06
1.71264e-06
1.71199e-06
1.34102e-06
1.8507e-05
1.27231e-06
2.09373e-05
1.70442e-05
1.9237e-05
1.29898e-06
1.85186e-05
1.20561e-06
2.09133e-05
6.32349e-06
6.40353e-06
6.25155e-06
6.41447e-06
6.40464e-06