/*--------------------------------*- C++ -*----------------------------------*\
| =========                 |                                                 |
| \\      /  F ield         | OpenFOAM: The Open Source CFD Toolbox           |
|  \\    /   O peration     | Version:  v1906                                 |
|   \\  /    A nd           | Web:      www.OpenFOAM.com                      |
|    \\/     M anipulation  |                                                 |
\*---------------------------------------------------------------------------*/
FoamFile
{
    version     2.0;
    format      ascii;
    class       volScalarField;
    location    "325";
    object      p;
}
// * * * * * * * * * * * * * * * * * * * * * * * * * * * * * * * * * * * * * //

dimensions      [0 2 -2 0 0 0 0];


internalField   nonuniform List<scalar> 
171728
(
0.00351991
0.00351881
0.00351885
0.00351952
0.00348435
0.00348286
0.00348289
0.00348575
0.00344617
0.00344416
0.00344419
0.00344649
0.003402
0.00340034
0.00340031
0.00340256
0.00335375
0.00335225
0.00335224
0.00335461
0.00330494
0.00330355
0.00330353
0.00330594
0.00325692
0.00325567
0.00325568
0.00325804
0.00320967
0.00320857
0.00320855
0.00321094
0.00316326
0.00316225
0.00316227
0.00316467
0.00311795
0.00311706
0.00311707
0.00311946
0.00307356
0.0030728
0.00307278
0.00307517
0.00302987
0.0030292
0.00302919
0.00303157
0.0029868
0.00298622
0.00298622
0.00298857
0.0029441
0.00294369
0.00294369
0.00294602
0.00290173
0.00290142
0.00290145
0.0029037
0.00285968
0.00285933
0.00285942
0.00286168
0.00281798
0.00281769
0.00281772
0.00281999
0.00277662
0.00277636
0.00277647
0.00277867
0.00273566
0.00273542
0.00273554
0.00273771
0.002695
0.00269492
0.00269482
0.00269692
0.00265471
0.0026547
0.00265447
0.00265645
0.0026147
0.00261457
0.00261467
0.00261643
0.00257494
0.00257488
0.00257504
0.00257656
0.00253552
0.00253567
0.00253576
0.00253733
0.0024963
0.00249646
0.00249643
0.00249813
0.00245729
0.0024574
0.00245753
0.00245924
0.00241855
0.00241875
0.00241879
0.00242064
0.00238002
0.00238031
0.00238024
0.00238228
0.00234168
0.00234204
0.00234206
0.00234389
0.00230353
0.00230388
0.00230388
0.00230593
0.00226558
0.00226593
0.00226597
0.00226785
0.00222774
0.00222825
0.00222817
0.00223005
0.00219007
0.00219042
0.00219044
0.00219254
0.0021525
0.00215301
0.00215301
0.00215477
0.0021152
0.00211559
0.00211562
0.00211752
0.00207789
0.00207832
0.00207827
0.0020802
0.00204088
0.00204119
0.00204129
0.00204318
0.00200376
0.00200416
0.00200403
0.00200601
0.00196706
0.00196732
0.00196731
0.00196932
0.00193022
0.00193036
0.00193051
0.00193236
0.00189386
0.00189422
0.00189391
0.00189618
0.00185726
0.0018573
0.00185742
0.0018592
0.00182107
0.00182088
0.0018211
0.00182317
0.0017847
0.00178495
0.00178482
0.00178698
0.00174896
0.00174875
0.00174872
0.0017507
0.00171286
0.0017129
0.00171291
0.00171495
0.00167717
0.00167682
0.00167687
0.00167899
0.00164155
0.00164156
0.00164138
0.00164341
0.001606
0.00160577
0.00160598
0.001608
0.0015709
0.00157036
0.0015703
0.00157236
0.00153526
0.00153518
0.00153512
0.00153719
0.00150013
0.00150003
0.00150003
0.00150204
0.00146505
0.00146456
0.0014646
0.00146662
0.00143
0.00142982
0.00142973
0.0014317
0.00139485
0.0013946
0.00139469
0.0013967
0.00136032
0.00136002
0.00135992
0.00136189
0.00132532
0.00132508
0.00132509
0.00132703
0.00129076
0.00129044
0.00129042
0.0012924
0.00125601
0.00125582
0.00125586
0.00125777
0.00122151
0.00122119
0.00122115
0.00122305
0.00118698
0.00118663
0.00118673
0.00118866
0.00115226
0.00115232
0.00115211
0.00115405
0.00111795
0.00111758
0.00111784
0.00111969
0.00108359
0.00108331
0.00108322
0.00108508
0.00104919
0.00104903
0.00104907
0.00105105
0.00101471
0.00101462
0.0010146
0.00101647
0.000980745
0.000980518
0.000980481
0.000982408
0.000946118
0.00094585
0.000945877
0.000947762
0.000912278
0.000912227
0.000912276
0.000914126
0.000878819
0.00087858
0.000878558
0.00088046
0.000843839
0.000843451
0.000843421
0.000845292
0.000808186
0.000807994
0.000807994
0.000809957
0.000772654
0.000773206
0.000773215
0.000775396
0.000738992
0.000739304
0.000739325
0.00074138
0.000706522
0.000706091
0.000706098
0.000707758
0.000674875
0.000674233
0.000674232
0.000675782
0.000641953
0.000641427
0.000641427
0.000643139
0.000604911
0.00060452
0.00060452
0.000606521
0.000564171
0.000564616
0.000564615
0.000567142
0.000524205
0.000525131
0.000525131
0.000527735
0.000486892
0.000487302
0.000487301
0.000489564
0.000452068
0.00045198
0.00045198
0.000453851
0.000420135
0.000419733
0.000419733
0.000421333
0.00039065
0.000390543
0.000390544
0.000392148
0.00035946
0.000359404
0.000359404
0.000361211
0.0003254
0.000325366
0.000325366
0.000327335
0.00028981
0.000289787
0.000289787
0.000291833
0.000253587
0.000253567
0.000253567
0.000255644
0.00021712
0.000217098
0.000217098
0.000219186
0.000180581
0.000180556
0.000180556
0.000182643
0.00014401
0.000143986
0.000143986
0.000146067
0.000107423
0.000107401
0.000107401
0.000109466
7.08395e-05
7.08122e-05
7.0811e-05
7.28439e-05
3.50073e-05
3.44339e-05
3.44307e-05
3.63149e-05
6.23136e-06
7.14841e-06
7.14733e-06
5.41976e-06
0.00352435
0.00352192
0.00352189
0.00352431
0.00352193
0.00352192
0.00352831
0.00352832
0.00352829
0.0035283
0.0035219
0.00352191
0.00352434
0.00352191
0.00352187
0.00352432
0.00351956
0.00349054
0.00351882
0.00351879
0.00349243
0.00349246
0.00351949
0.00349054
0.00351884
0.00351884
0.00349242
0.00349239
0.00351882
0.00349242
0.00349237
0.00351957
0.00349053
0.0035188
0.00349237
0.00349241
0.00349053
0.00348575
0.00345199
0.00348285
0.00348286
0.00345432
0.00345435
0.00348575
0.003452
0.00348287
0.00348288
0.00345429
0.0034543
0.0034829
0.0034543
0.00345431
0.00348576
0.00345202
0.00348285
0.00345427
0.00345433
0.003452
0.00344648
0.00340874
0.00344414
0.00344415
0.00341185
0.00341183
0.00344648
0.00340874
0.00344416
0.00344417
0.00341182
0.00341183
0.00344418
0.00341181
0.00341182
0.00344651
0.00340875
0.00344414
0.00341184
0.00341184
0.00340874
0.00340255
0.00336108
0.0034003
0.00340033
0.00336448
0.00336448
0.00340256
0.0033611
0.00340031
0.00340032
0.00336448
0.00336449
0.00340035
0.00336447
0.00336449
0.00340256
0.00336109
0.00340033
0.00336449
0.00336446
0.00336109
0.00335461
0.00331235
0.00335225
0.00335223
0.00331565
0.00331566
0.00335462
0.00331236
0.00335224
0.00335226
0.00331564
0.00331568
0.00335225
0.00331565
0.00331569
0.00335461
0.00331235
0.00335227
0.0033157
0.00331565
0.00331236
0.00330593
0.00326431
0.00330356
0.00330357
0.00326755
0.00326753
0.00330594
0.00326431
0.00330356
0.00330355
0.00326755
0.00326754
0.00330357
0.00326753
0.00326754
0.00330593
0.00326432
0.00330356
0.00326755
0.00326757
0.00326433
0.00325802
0.00321712
0.00325565
0.00325565
0.00322029
0.00322027
0.00325802
0.00321711
0.00325567
0.00325567
0.00322029
0.00322029
0.00325568
0.00322027
0.0032203
0.00325803
0.00321712
0.00325567
0.00322029
0.00322029
0.00321712
0.00321092
0.00317072
0.00320856
0.00320855
0.00317373
0.00317374
0.00321093
0.00317071
0.00320856
0.00320855
0.00317374
0.00317375
0.00320861
0.00317374
0.00317379
0.00321093
0.00317071
0.00320856
0.00317374
0.00317373
0.0031707
0.00316467
0.00312535
0.00316227
0.00316226
0.00312828
0.00312828
0.00316466
0.00312536
0.00316226
0.00316226
0.00312829
0.00312827
0.00316223
0.00312828
0.00312827
0.00316465
0.00312536
0.00316227
0.00312828
0.00312826
0.00312536
0.00311946
0.00308095
0.00311708
0.00311706
0.00308378
0.00308379
0.00311945
0.00308095
0.00311706
0.00311707
0.00308378
0.00308379
0.00311704
0.00308377
0.00308378
0.00311946
0.00308095
0.00311709
0.00308382
0.00308379
0.00308095
0.00307518
0.00303727
0.0030728
0.00307279
0.00304007
0.00304005
0.00307518
0.00303727
0.0030728
0.0030728
0.00304005
0.00304005
0.00307276
0.00304005
0.00304006
0.00307516
0.00303727
0.00307279
0.00304006
0.00304003
0.00303724
0.00303158
0.00299419
0.00302918
0.0030292
0.0029969
0.00299689
0.00303159
0.00299417
0.00302918
0.0030292
0.00299688
0.00299693
0.00302923
0.00299689
0.00299695
0.0030316
0.00299419
0.00302923
0.0029969
0.00299693
0.00299418
0.0029886
0.0029515
0.00298623
0.00298622
0.00295416
0.00295426
0.00298859
0.00295152
0.00298624
0.0029862
0.00295418
0.00295418
0.00298628
0.00295426
0.00295431
0.00298858
0.00295152
0.00298624
0.00295418
0.00295435
0.00295156
0.00294599
0.00290917
0.0029437
0.00294369
0.00291185
0.00291196
0.00294597
0.00290923
0.00294368
0.00294368
0.00291185
0.00291184
0.00294368
0.00291196
0.00291204
0.002946
0.00290918
0.00294371
0.00291187
0.00291201
0.00290923
0.00290371
0.0028671
0.00290139
0.00290144
0.00286979
0.00286985
0.00290377
0.00286714
0.00290142
0.00290142
0.00286981
0.00286974
0.00290138
0.00286985
0.00286994
0.00290374
0.00286711
0.00290136
0.00286979
0.00286994
0.00286716
0.00286165
0.0028253
0.0028593
0.00285933
0.00282802
0.00282801
0.00286168
0.0028253
0.00285932
0.00285938
0.00282799
0.00282798
0.00285935
0.00282801
0.00282818
0.00286169
0.00282528
0.00285937
0.00282807
0.00282819
0.00282541
0.00281995
0.00278387
0.00281765
0.00281768
0.00278672
0.00278666
0.00281997
0.00278386
0.00281764
0.00281768
0.00278673
0.00278671
0.00281769
0.00278665
0.00278679
0.00281992
0.00278393
0.00281768
0.00278675
0.00278681
0.002784
0.00277855
0.00274283
0.00277635
0.00277635
0.00274578
0.00274564
0.00277856
0.00274276
0.00277633
0.00277635
0.0027458
0.00274567
0.0027765
0.00274565
0.00274573
0.00277861
0.00274285
0.00277649
0.00274561
0.00274572
0.0027429
0.00273761
0.00270203
0.00273556
0.00273543
0.00270504
0.00270507
0.00273752
0.00270199
0.00273557
0.0027355
0.00270505
0.00270496
0.00273561
0.00270508
0.00270488
0.00273762
0.00270205
0.00273561
0.00270489
0.00270487
0.00270214
0.00269689
0.00266153
0.00269489
0.00269492
0.00266475
0.00266472
0.00269686
0.00266162
0.0026949
0.00269485
0.00266475
0.00266464
0.00269485
0.00266471
0.00266466
0.0026969
0.00266158
0.00269485
0.00266465
0.00266468
0.00266164
0.00265648
0.0026214
0.00265465
0.00265472
0.00262467
0.00262454
0.00265652
0.00262152
0.00265466
0.00265462
0.00262468
0.00262465
0.00265453
0.00262452
0.00262463
0.00265642
0.00262147
0.0026545
0.00262469
0.00262466
0.00262147
0.00261639
0.00258166
0.00261467
0.00261456
0.00258484
0.00258486
0.00261636
0.00258174
0.00261468
0.0026146
0.00258486
0.00258493
0.00261471
0.00258486
0.00258476
0.00261644
0.00258158
0.00261472
0.00258487
0.00258477
0.00258164
0.00257663
0.00254224
0.00257495
0.00257487
0.00254535
0.00254551
0.00257664
0.00254236
0.00257495
0.00257498
0.00254537
0.00254539
0.00257492
0.0025455
0.00254544
0.00257662
0.0025422
0.0025749
0.00254538
0.00254542
0.00254227
0.00253716
0.00250336
0.00253551
0.00253566
0.00250631
0.00250612
0.00253742
0.00250295
0.00253551
0.00253566
0.00250633
0.00250607
0.00253566
0.0025061
0.00250614
0.00253737
0.00250296
0.00253566
0.00250604
0.00250614
0.00250305
0.00249834
0.00246389
0.00249649
0.00249646
0.00246714
0.00246711
0.00249815
0.00246413
0.00249646
0.00249634
0.00246717
0.00246721
0.00249646
0.00246712
0.00246717
0.00249794
0.00246432
0.00249649
0.00246719
0.00246718
0.0024642
0.00245925
0.0024255
0.0024576
0.0024574
0.00242837
0.00242848
0.00245912
0.00242565
0.00245758
0.00245746
0.00242839
0.00242843
0.00245749
0.00242849
0.00242844
0.00245932
0.00242545
0.00245752
0.0024284
0.00242844
0.00242557
0.00242052
0.0023871
0.0024188
0.00241874
0.00238987
0.00238993
0.00242065
0.00238706
0.0024188
0.00241876
0.00238986
0.00238991
0.00241881
0.00238992
0.00238986
0.00242057
0.0023872
0.00241882
0.0023899
0.00238988
0.00238716
0.00238208
0.00234911
0.00238026
0.00238032
0.00235162
0.00235158
0.00238218
0.00234889
0.00238027
0.00238023
0.00235159
0.00235161
0.0023803
0.00235158
0.00235152
0.00238219
0.0023489
0.00238031
0.00235163
0.00235153
0.00234882
0.0023442
0.00231051
0.002342
0.00234205
0.00231342
0.00231334
0.002344
0.00231075
0.00234202
0.00234205
0.00231339
0.00231335
0.00234197
0.00231335
0.00231343
0.00234409
0.00231066
0.00234199
0.00231335
0.00231342
0.00231084
0.00230565
0.00227299
0.00230394
0.00230389
0.00227543
0.00227541
0.00230574
0.00227295
0.00230393
0.00230386
0.00227541
0.00227543
0.00230387
0.00227541
0.00227544
0.00230567
0.00227293
0.00230389
0.00227542
0.00227543
0.00227272
0.00226802
0.00223502
0.00226598
0.00226593
0.00223758
0.00223765
0.00226802
0.00223503
0.00226596
0.00226596
0.00223759
0.00223761
0.00226596
0.00223766
0.00223759
0.00226805
0.00223494
0.00226598
0.00223757
0.00223757
0.002235
0.00223016
0.00219724
0.00222818
0.00222824
0.00219991
0.00219983
0.00223018
0.00219738
0.00222815
0.00222817
0.00219993
0.00219991
0.00222821
0.00219985
0.00219991
0.00223004
0.00219735
0.00222819
0.00219988
0.00219991
0.00219743
0.00219233
0.00215975
0.00219047
0.0021904
0.00216232
0.00216238
0.0021924
0.00215971
0.0021905
0.00219049
0.00216233
0.00216233
0.00219045
0.00216237
0.00216234
0.00219243
0.00215972
0.00219046
0.00216238
0.00216236
0.00215963
0.00215485
0.0021224
0.00215294
0.00215301
0.00212498
0.00212492
0.00215488
0.0021224
0.00215296
0.00215298
0.00212495
0.00212498
0.00215299
0.00212492
0.00212493
0.00215483
0.00212242
0.002153
0.00212492
0.00212492
0.00212244
0.0021175
0.00208517
0.00211566
0.0021156
0.00208767
0.00208764
0.00211746
0.00208508
0.00211564
0.00211563
0.00208768
0.00208758
0.0021156
0.00208765
0.00208768
0.00211751
0.00208511
0.00211561
0.00208761
0.00208769
0.00208507
0.0020803
0.00204788
0.00207835
0.00207832
0.00205045
0.00205047
0.00208022
0.002048
0.00207835
0.00207828
0.00205046
0.00205059
0.00207834
0.00205046
0.00205042
0.00208025
0.00204811
0.00207834
0.00205058
0.00205042
0.00204805
0.00204299
0.00201095
0.00204117
0.0020412
0.00201337
0.00201338
0.00204312
0.00201092
0.00204118
0.00204131
0.00201336
0.00201329
0.00204118
0.00201339
0.00201344
0.00204316
0.00201079
0.0020412
0.00201331
0.00201346
0.00201087
0.00200612
0.00197413
0.00200414
0.00200416
0.00197653
0.00197664
0.00200606
0.00197423
0.00200413
0.00200401
0.00197652
0.00197646
0.00200416
0.00197662
0.00197648
0.00200598
0.00197418
0.00200417
0.00197644
0.00197646
0.00197418
0.00196922
0.00193731
0.00196732
0.00196735
0.00193965
0.00193946
0.00196929
0.00193707
0.00196731
0.00196735
0.0019397
0.00193975
0.00196728
0.00193948
0.00193961
0.00196935
0.00193725
0.00196727
0.00193974
0.00193962
0.00193717
0.00193249
0.00190067
0.00193049
0.00193032
0.00190303
0.00190324
0.00193228
0.00190105
0.00193051
0.00193047
0.001903
0.00190299
0.00193046
0.00190326
0.00190321
0.00193235
0.00190075
0.00193044
0.001903
0.00190321
0.00190101
0.00189584
0.00186443
0.00189389
0.00189421
0.00186663
0.00186662
0.00189626
0.00186414
0.00189385
0.00189395
0.00186664
0.00186656
0.00189409
0.00186661
0.00186642
0.00189597
0.00186422
0.0018941
0.00186657
0.00186642
0.00186405
0.0018596
0.00182776
0.00185758
0.00185731
0.00183007
0.00182985
0.00185921
0.00182765
0.00185759
0.00185737
0.00183011
0.00183017
0.00185725
0.00182984
0.00183012
0.00185936
0.00182796
0.00185725
0.00183014
0.00183013
0.00182794
0.00182293
0.00179173
0.0018209
0.00182087
0.00179386
0.00179396
0.0018229
0.00179191
0.00182093
0.00182114
0.00179382
0.00179386
0.0018211
0.001794
0.00179396
0.00182319
0.00179165
0.00182111
0.00179391
0.00179396
0.00179181
0.00178696
0.00175554
0.00178492
0.00178495
0.00175778
0.00175783
0.00178711
0.00175556
0.00178487
0.00178477
0.00175781
0.00175773
0.00178494
0.00175778
0.00175772
0.00178681
0.00175556
0.00178493
0.00175772
0.00175772
0.00175549
0.00175074
0.00171973
0.00174868
0.00174875
0.00172179
0.00172187
0.00175076
0.00171976
0.00174874
0.00174875
0.00172179
0.00172185
0.00174866
0.00172192
0.00172177
0.00175078
0.00171975
0.00174867
0.00172185
0.00172176
0.0017197
0.00171496
0.00168378
0.00171287
0.00171288
0.00168597
0.00168577
0.00171495
0.00168364
0.00171287
0.00171291
0.00168594
0.00168591
0.00171289
0.00168572
0.00168597
0.00171498
0.00168375
0.00171287
0.00168591
0.00168598
0.00168379
0.00167899
0.00164818
0.00167696
0.00167684
0.00165022
0.00165039
0.00167889
0.00164833
0.00167695
0.00167688
0.00165022
0.00165017
0.00167693
0.0016504
0.00165014
0.00167895
0.00164813
0.00167697
0.00165018
0.00165016
0.00164811
0.00164346
0.00161274
0.0016414
0.00164155
0.00161484
0.00161478
0.0016436
0.00161262
0.0016414
0.00164136
0.00161481
0.00161487
0.00164134
0.0016147
0.00161488
0.00164342
0.00161283
0.00164132
0.00161488
0.00161482
0.00161278
0.00160796
0.00157708
0.00160594
0.00160579
0.00157911
0.00157912
0.00160785
0.00157707
0.00160593
0.00160597
0.0015792
0.00157918
0.00160598
0.00157914
0.00157914
0.00160804
0.00157708
0.00160595
0.00157918
0.00157923
0.00157709
0.00157235
0.00154195
0.00157028
0.00157034
0.00154399
0.00154401
0.00157235
0.00154199
0.00157034
0.00157029
0.00154394
0.00154391
0.00157028
0.00154401
0.00154394
0.00157235
0.00154189
0.00157035
0.00154389
0.00154391
0.00154191
0.00153723
0.00150671
0.0015352
0.00153519
0.00150883
0.00150886
0.00153726
0.00150678
0.00153515
0.00153514
0.0015088
0.00150882
0.00153515
0.00150882
0.00150884
0.00153717
0.00150679
0.00153512
0.00150884
0.00150883
0.00150679
0.00150194
0.00147139
0.00149994
0.00150006
0.00147335
0.00147324
0.00150203
0.00147128
0.00149992
0.00149998
0.00147346
0.00147345
0.00150004
0.00147332
0.00147335
0.00150204
0.00147137
0.00150002
0.0014734
0.00147339
0.00147134
0.00146668
0.00143637
0.00146468
0.00146448
0.0014385
0.00143858
0.00146657
0.00143649
0.00146474
0.00146467
0.00143838
0.00143837
0.00146456
0.00143855
0.00143847
0.00146665
0.00143638
0.00146461
0.00143841
0.00143842
0.0014364
0.00143164
0.00140144
0.00142966
0.00142984
0.00140339
0.00140332
0.00143179
0.00140134
0.00142955
0.00142965
0.00140346
0.00140353
0.00142976
0.00140331
0.00140343
0.00143168
0.00140145
0.0014297
0.00140352
0.00140348
0.00140141
0.00139677
0.00136658
0.00139475
0.00139465
0.00136872
0.00136875
0.00139665
0.00136664
0.00139482
0.00139475
0.00136869
0.00136856
0.00139466
0.00136871
0.00136859
0.00139674
0.00136654
0.00139472
0.00136852
0.00136857
0.00136655
0.00136183
0.00133169
0.00135985
0.00135996
0.0013337
0.00133367
0.00136192
0.00133171
0.00135984
0.0013599
0.00133373
0.00133384
0.00135994
0.00133377
0.00133379
0.00136187
0.00133176
0.00135992
0.00133391
0.0013338
0.00133175
0.00132704
0.00129713
0.00132513
0.00132508
0.00129923
0.00129924
0.00132704
0.00129711
0.00132511
0.00132508
0.00129918
0.00129903
0.00132508
0.00129913
0.00129912
0.00132704
0.00129702
0.00132506
0.00129897
0.00129909
0.00129706
0.00129243
0.00126237
0.00129045
0.00129048
0.00126437
0.00126431
0.00129241
0.00126237
0.00129047
0.00129045
0.00126443
0.00126458
0.00129047
0.00126442
0.00126449
0.00129238
0.00126251
0.00129048
0.00126465
0.00126454
0.00126246
0.00125769
0.00122785
0.00125579
0.00125576
0.00122994
0.00123005
0.00125772
0.00122787
0.00125578
0.00125581
0.00122987
0.0012298
0.00125583
0.00122992
0.00122979
0.00125777
0.00122774
0.00125583
0.00122974
0.00122975
0.00122773
0.00122318
0.00119327
0.00122124
0.00122131
0.00119529
0.00119514
0.00122314
0.00119316
0.00122125
0.00122122
0.00119537
0.0011954
0.00122113
0.00119518
0.00119535
0.0012231
0.00119333
0.00122115
0.00119541
0.00119541
0.00119332
0.00118859
0.00115866
0.00118668
0.00118657
0.00116077
0.00116094
0.00118853
0.00115893
0.0011867
0.00118669
0.00116064
0.00116065
0.00118675
0.001161
0.0011608
0.00118863
0.00115864
0.00118676
0.0011607
0.00116067
0.00115872
0.001154
0.00112434
0.00115212
0.0011523
0.00112629
0.00112626
0.00115423
0.00112419
0.00115206
0.00115208
0.0011264
0.00112647
0.00115216
0.00112622
0.00112636
0.00115398
0.00112446
0.00115207
0.00112647
0.00112647
0.00112436
0.00111969
0.00108992
0.00111771
0.00111764
0.00109197
0.00109191
0.00111952
0.00108985
0.00111783
0.00111785
0.00109196
0.00109188
0.00111775
0.00109185
0.00109178
0.00111978
0.0010898
0.00111788
0.00109181
0.00109178
0.00108974
0.00108525
0.00105551
0.00108339
0.00108334
0.00105757
0.00105754
0.00108521
0.00105557
0.00108336
0.00108329
0.00105756
0.00105757
0.0010832
0.00105765
0.00105767
0.00108514
0.00105559
0.00108316
0.00105763
0.00105762
0.00105567
0.00105082
0.00102115
0.00104893
0.00104893
0.00102315
0.00102322
0.0010509
0.00102119
0.00104891
0.00104897
0.00102311
0.00102317
0.00104914
0.00102317
0.00102316
0.00105093
0.00102115
0.00104911
0.00102317
0.00102317
0.00102113
0.00101653
0.000987108
0.00101465
0.0010147
0.000989117
0.000989111
0.00101656
0.000987074
0.0010146
0.00101462
0.000989153
0.000989109
0.00101457
0.000989115
0.000989048
0.0010165
0.000987076
0.00101459
0.000989063
0.000989051
0.000987062
0.000982413
0.000952426
0.000980489
0.000980472
0.000954461
0.000954453
0.000982384
0.000952425
0.000980552
0.000980508
0.000954483
0.000954491
0.000980501
0.000954479
0.000954498
0.000982399
0.000952453
0.000980501
0.000954498
0.000954504
0.000952458
0.000947733
0.000918706
0.000945845
0.000945838
0.000920593
0.00092057
0.000947729
0.000918659
0.000945861
0.000945875
0.0009206
0.000920617
0.000945866
0.000920538
0.00092053
0.000947755
0.0009187
0.000945872
0.000920588
0.000920536
0.000918634
0.0009142
0.000885108
0.000912287
0.00091226
0.000887182
0.000887169
0.00091415
0.00088514
0.000912292
0.000912306
0.000887159
0.000887155
0.000912219
0.000887173
0.000887182
0.000914193
0.00088511
0.000912224
0.000887184
0.000887182
0.000885168
0.000880372
0.00085002
0.00087855
0.000878563
0.000852183
0.000852224
0.000880421
0.000850055
0.000878512
0.000878504
0.000852173
0.000852175
0.000878605
0.000852231
0.000852246
0.000880376
0.000850023
0.000878603
0.000852193
0.000852246
0.000850068
0.000845257
0.000814812
0.000843416
0.000843453
0.000816914
0.000816923
0.000845282
0.000814799
0.000843419
0.000843423
0.000816925
0.000816925
0.000843457
0.000816913
0.000816907
0.000845258
0.000814805
0.000843459
0.000816906
0.000816908
0.000814783
0.000809994
0.000780082
0.000808004
0.000808003
0.000781805
0.000781779
0.000809977
0.000780069
0.000808013
0.000808013
0.000781803
0.000781809
0.000807982
0.000781793
0.000781777
0.000809986
0.000780079
0.000807982
0.000781779
0.0007818
0.00078007
0.000775409
0.000745935
0.000773214
0.000773201
0.000747721
0.000747725
0.000775398
0.000745941
0.00077322
0.000773224
0.000747709
0.000747711
0.000773194
0.00074771
0.000747738
0.000775412
0.000745961
0.0007732
0.00074777
0.00074774
0.000745962
0.000741353
0.000712227
0.00073929
0.000739286
0.000714311
0.000714313
0.000741359
0.000712237
0.000739297
0.000739304
0.000714326
0.00071434
0.000739317
0.00071434
0.000714362
0.00074138
0.000712251
0.000739316
0.000714348
0.000714362
0.000712269
0.000707722
0.000680039
0.000706074
0.000706081
0.000682076
0.000682082
0.00070773
0.000680039
0.000706079
0.000706094
0.000682075
0.00068208
0.000706118
0.000682074
0.000682081
0.000707741
0.000680039
0.000706119
0.000682075
0.000682083
0.00068004
0.000675784
0.000647812
0.000674236
0.000674241
0.000649973
0.000649971
0.000675783
0.000647807
0.000674236
0.000674238
0.000649974
0.00064997
0.000674235
0.000649969
0.000649962
0.000675783
0.000647807
0.000674236
0.000649968
0.000649963
0.0006478
0.000643151
0.000611797
0.000641431
0.000641429
0.00061415
0.000614145
0.000643146
0.000611792
0.000641433
0.000641429
0.00061415
0.000614147
0.000641421
0.000614144
0.00061414
0.000643146
0.000611793
0.000641422
0.000614145
0.00061414
0.000611787
0.000606529
0.00057253
0.000604524
0.00060452
0.000574579
0.000574576
0.000606524
0.00057253
0.000604522
0.000604521
0.000574577
0.000574576
0.000604515
0.000574575
0.000574573
0.000606526
0.000572528
0.000604515
0.000574574
0.000574572
0.000572527
0.000567143
0.000533082
0.000564618
0.000564616
0.000534944
0.000534942
0.000567144
0.000533082
0.000564616
0.000564617
0.000534943
0.000534943
0.000564615
0.000534942
0.000534944
0.000567143
0.000533082
0.000564614
0.000534943
0.000534943
0.000533082
0.000527734
0.000494594
0.000525131
0.000525131
0.000496508
0.000496509
0.000527733
0.000494596
0.000525131
0.000525131
0.000496508
0.000496508
0.000525132
0.000496509
0.000496509
0.000527734
0.000494594
0.000525132
0.000496508
0.000496509
0.000494595
0.000489564
0.000458538
0.000487301
0.000487301
0.000460578
0.000460579
0.000489565
0.000458537
0.000487301
0.000487301
0.000460579
0.000460578
0.000487301
0.000460578
0.000460577
0.000489564
0.000458536
0.000487302
0.000460577
0.000460578
0.000458537
0.000453851
0.000425476
0.000451981
0.000451981
0.000427393
0.000427392
0.00045385
0.000425476
0.000451982
0.00045198
0.000427393
0.000427392
0.000451981
0.000427395
0.000427393
0.00045385
0.000425476
0.000451983
0.000427392
0.000427393
0.000425476
0.000421334
0.000396118
0.000419733
0.000419733
0.000397858
0.000397857
0.000421333
0.000396118
0.000419733
0.000419733
0.000397856
0.000397857
0.000419733
0.000397857
0.000397856
0.000421334
0.000396118
0.000419733
0.000397857
0.000397856
0.000396117
0.000392149
0.00036563
0.000390544
0.000390545
0.000367502
0.000367502
0.000392149
0.00036563
0.000390544
0.000390545
0.000367502
0.000367502
0.000390544
0.000367501
0.000367502
0.000392149
0.00036563
0.000390543
0.000367502
0.000367502
0.00036563
0.00036121
0.000332075
0.000359404
0.000359404
0.000334071
0.000334071
0.00036121
0.000332075
0.000359404
0.000359404
0.000334071
0.000334071
0.000359404
0.000334071
0.000334071
0.00036121
0.000332075
0.000359404
0.000334071
0.000334071
0.000332074
0.000327335
0.000296714
0.000325366
0.000325366
0.000298764
0.000298764
0.000327335
0.000296714
0.000325366
0.000325366
0.000298764
0.000298764
0.000325366
0.000298764
0.000298764
0.000327335
0.000296714
0.000325366
0.000298764
0.000298764
0.000296714
0.000291833
0.000260582
0.000289787
0.000289787
0.000262653
0.000262653
0.000291833
0.000260582
0.000289787
0.000289787
0.000262653
0.000262653
0.000289787
0.000262653
0.000262654
0.000291833
0.000260582
0.000289787
0.000262653
0.000262653
0.000260582
0.000255644
0.000224147
0.000253567
0.000253567
0.000226224
0.000226224
0.000255644
0.000224147
0.000253567
0.000253567
0.000226224
0.000226224
0.000253567
0.000226224
0.000226224
0.000255645
0.000224146
0.000253567
0.000226224
0.000226224
0.000224146
0.000219186
0.000187612
0.000217098
0.000217098
0.000189691
0.000189691
0.000219186
0.000187612
0.000217098
0.000217098
0.000189691
0.00018969
0.000217098
0.000189691
0.000189691
0.000219187
0.000187611
0.000217098
0.00018969
0.000189691
0.000187611
0.000182643
0.000151048
0.000180556
0.000180556
0.000153126
0.000153125
0.000182643
0.000151048
0.000180556
0.000180556
0.000153126
0.000153126
0.000180556
0.000153126
0.000153126
0.000182643
0.000151048
0.000180557
0.000153125
0.000153126
0.000151048
0.000146067
0.000114466
0.000143986
0.000143986
0.000116539
0.000116539
0.000146067
0.000114466
0.000143986
0.000143986
0.000116539
0.000116539
0.000143986
0.000116539
0.000116539
0.000146067
0.000114465
0.000143986
0.000116539
0.000116539
0.000114465
0.000109466
7.7881e-05
0.000107401
0.000107401
7.99499e-05
7.99497e-05
0.000109466
7.78819e-05
0.000107401
0.000107401
7.99494e-05
7.99491e-05
0.000107401
7.99498e-05
7.99491e-05
0.000109466
7.78801e-05
0.000107401
7.99491e-05
7.99492e-05
7.78803e-05
7.28448e-05
4.13276e-05
7.08125e-05
7.08122e-05
4.33942e-05
4.33951e-05
7.28445e-05
4.13291e-05
7.08115e-05
7.08111e-05
4.33925e-05
4.33917e-05
7.08116e-05
4.33937e-05
4.33915e-05
7.28443e-05
4.13251e-05
7.08114e-05
4.33911e-05
4.33902e-05
4.13249e-05
3.63184e-05
8.65949e-06
3.4435e-05
3.44356e-05
1.16707e-05
1.16704e-05
3.63189e-05
8.65979e-06
3.44335e-05
3.44316e-05
1.16716e-05
1.16653e-05
3.44309e-05
1.16707e-05
1.16637e-05
3.63156e-05
8.65615e-06
3.44302e-05
1.16687e-05
1.1669e-05
8.65502e-06
5.42258e-06
7.1475e-06
7.14735e-06
5.42376e-06
7.1478e-06
7.14383e-06
6.23104e-06
6.23068e-06
6.22979e-06
7.14299e-06
5.4214e-06
7.1467e-06
0.00353141
0.00353398
0.00353274
0.00353273
0.00356035
0.00353398
0.00356364
0.00353419
0.00356027
0.00353392
0.00353413
0.00356339
0.00354496
0.00356681
0.00356669
0.00350399
0.00351755
0.00352151
0.00349616
0.0034942
0.0034997
0.00350403
0.00351757
0.00352154
0.00349615
0.0035199
0.0035199
0.0035199
0.00349342
0.00349342
0.00349342
0.00349342
0.00350364
0.00351521
0.00352048
0.00351118
0.00352261
0.00350067
0.00351148
0.00349445
0.00349965
0.00350364
0.00352048
0.00351525
0.00351117
0.00352259
0.00351148
0.00350068
0.0035213
0.00352124
0.00350843
0.00350065
0.00350058
0.00347651
0.00349062
0.00349051
0.00347447
0.00348787
0.00347345
0.00347644
0.00349061
0.00349056
0.00347448
0.00348435
0.00348434
0.00348435
0.00345622
0.00345622
0.00345623
0.00345621
0.00347428
0.00348917
0.00348278
0.00347356
0.00348759
0.00347476
0.00347348
0.00348779
0.0034735
0.00347427
0.00348277
0.00348917
0.00347351
0.00348758
0.00347347
0.0034747
0.0034909
0.00349089
0.00347195
0.00347515
0.00347511
0.00343407
0.00344882
0.0034497
0.00343271
0.00344761
0.00343185
0.00343395
0.0034488
0.00344974
0.00343274
0.00344617
0.00344617
0.00344617
0.00341359
0.00341359
0.0034136
0.00341358
0.00343284
0.00344835
0.00344419
0.0034338
0.00344729
0.0034332
0.00343372
0.00344761
0.00343187
0.00343284
0.00344419
0.00344838
0.00343381
0.00344729
0.00343375
0.00343319
0.00344905
0.00344907
0.00343109
0.00343311
0.0034331
0.00338763
0.00340409
0.0034056
0.00338622
0.00340341
0.00338571
0.00338762
0.00340412
0.00340558
0.00338621
0.003402
0.003402
0.003402
0.00336597
0.00336597
0.00336597
0.00336597
0.00338687
0.00340397
0.00340032
0.00338855
0.0034034
0.00338692
0.00338852
0.00340345
0.0033857
0.00338687
0.00340033
0.00340398
0.00338856
0.00340341
0.0033885
0.00338693
0.00340422
0.00340424
0.00338525
0.00338642
0.00338641
0.00333862
0.00335573
0.00335713
0.00333745
0.0033554
0.00333719
0.00333866
0.00335576
0.00335705
0.00333744
0.00335375
0.00335375
0.00335374
0.00331708
0.00331708
0.00331708
0.00331707
0.00333826
0.00335579
0.00335224
0.00334008
0.00335542
0.00333817
0.00334007
0.00335538
0.00333711
0.00333826
0.00335224
0.00335578
0.00334007
0.00335542
0.00334008
0.00333816
0.00335583
0.00335583
0.0033367
0.00333755
0.00333756
0.0032896
0.00330685
0.00330788
0.00328877
0.00330661
0.00328855
0.00328966
0.00330686
0.00330781
0.00328876
0.00330494
0.00330494
0.00330493
0.00326884
0.00326885
0.00326885
0.00326884
0.0032896
0.00330689
0.00330355