/*--------------------------------*- C++ -*----------------------------------*\
| =========                 |                                                 |
| \\      /  F ield         | OpenFOAM: The Open Source CFD Toolbox           |
|  \\    /   O peration     | Version:  v1906                                 |
|   \\  /    A nd           | Web:      www.OpenFOAM.com                      |
|    \\/     M anipulation  |                                                 |
\*---------------------------------------------------------------------------*/
FoamFile
{
    version     2.0;
    format      ascii;
    class       volScalarField;
    location    "25";
    object      p;
}
// * * * * * * * * * * * * * * * * * * * * * * * * * * * * * * * * * * * * * //

dimensions      [0 2 -2 0 0 0 0];


internalField   nonuniform List<scalar> 
171728
(
0.00427508
0.0042756
0.00427552
0.00427805
0.00423436
0.00423506
0.00423517
0.0042382
0.00419179
0.00419199
0.00419203
0.0041946
0.00413862
0.00413853
0.00413852
0.00414138
0.0040827
0.00408235
0.00408235
0.00408552
0.00402785
0.00402754
0.00402754
0.00403032
0.00397917
0.00397892
0.00397892
0.00398169
0.00393348
0.00393341
0.00393341
0.00393609
0.00388823
0.00388819
0.00388819
0.00389087
0.00384302
0.00384298
0.00384298
0.00384566
0.0037978
0.00379777
0.00379777
0.00380044
0.00375259
0.00375255
0.00375255
0.00375523
0.00370737
0.00370734
0.00370734
0.00371001
0.00366216
0.00366212
0.00366212
0.0036648
0.00361694
0.00361691
0.00361691
0.00361958
0.00357173
0.00357169
0.00357169
0.00357437
0.00352651
0.00352648
0.00352648
0.00352915
0.0034813
0.00348126
0.00348126
0.00348393
0.00343608
0.00343604
0.00343604
0.00343872
0.00339086
0.00339083
0.00339083
0.0033935
0.00334565
0.00334561
0.00334561
0.00334829
0.00330043
0.0033004
0.0033004
0.00330307
0.00325522
0.00325518
0.00325518
0.00325785
0.00321
0.00320996
0.00320996
0.00321264
0.00316479
0.00316475
0.00316475
0.00316742
0.00311957
0.00311953
0.00311953
0.00312221
0.00307435
0.00307432
0.00307432
0.00307699
0.00302914
0.0030291
0.0030291
0.00303178
0.00298392
0.00298389
0.00298389
0.00298656
0.00293871
0.00293867
0.00293867
0.00294135
0.0028935
0.00289346
0.00289346
0.00289613
0.00284828
0.00284825
0.00284825
0.00285092
0.00280307
0.00280304
0.00280304
0.00280571
0.00275786
0.00275783
0.00275783
0.0027605
0.00271265
0.00271262
0.00271262
0.00271529
0.00266745
0.00266741
0.00266741
0.00267008
0.00262224
0.0026222
0.0026222
0.00262488
0.00257704
0.002577
0.002577
0.00257967
0.00253183
0.0025318
0.0025318
0.00253447
0.00248663
0.0024866
0.0024866
0.00248927
0.00244143
0.0024414
0.0024414
0.00244407
0.00239624
0.0023962
0.0023962
0.00239887
0.00235104
0.002351
0.002351
0.00235367
0.00230584
0.00230581
0.00230581
0.00230848
0.00226065
0.00226061
0.00226061
0.00226328
0.00221546
0.00221542
0.00221542
0.00221809
0.00217026
0.00217023
0.00217023
0.0021729
0.00212507
0.00212504
0.00212504
0.00212771
0.00207989
0.00207985
0.00207985
0.00208252
0.0020347
0.00203466
0.00203466
0.00203733
0.00198951
0.00198948
0.00198948
0.00199215
0.00194433
0.00194429
0.00194429
0.00194697
0.00189915
0.00189911
0.00189911
0.00190178
0.00185397
0.00185393
0.00185393
0.0018566
0.00180879
0.00180875
0.00180875
0.00181143
0.00176361
0.00176358
0.00176358
0.00176625
0.00171844
0.0017184
0.0017184
0.00172108
0.00167327
0.00167323
0.00167323
0.0016759
0.00162809
0.00162805
0.00162805
0.00163073
0.00158292
0.00158288
0.00158288
0.00158555
0.00153775
0.00153771
0.00153771
0.00154038
0.00149257
0.00149254
0.00149254
0.00149521
0.0014474
0.00144736
0.00144736
0.00145004
0.00140223
0.00140219
0.00140219
0.00140486
0.00135705
0.00135702
0.00135702
0.00135969
0.00131188
0.00131184
0.00131184
0.00131452
0.00126671
0.00126667
0.00126667
0.00126934
0.00122153
0.0012215
0.0012215
0.00122417
0.00117636
0.00117632
0.00117632
0.00117899
0.00113119
0.00113115
0.00113115
0.00113382
0.00108601
0.00108598
0.00108598
0.00108865
0.00104084
0.00104081
0.00104081
0.00104348
0.000995672
0.000995634
0.000995635
0.000998307
0.000950503
0.000950465
0.000950465
0.000953138
0.000905335
0.000905298
0.000905298
0.00090797
0.000860168
0.000860131
0.000860131
0.000862803
0.000815003
0.000814965
0.000814965
0.000817637
0.000769837
0.000769799
0.000769799
0.000772472
0.000724671
0.000724633
0.000724633
0.000727306
0.000679505
0.000679468
0.000679468
0.00068214
0.000634339
0.000634302
0.000634302
0.000636975
0.000589171
0.000589133
0.000589133
0.000591806
0.000544001
0.000543964
0.000543964
0.000546636
0.000498831
0.000498794
0.000498794
0.000501466
0.000453659
0.000453622
0.000453622
0.000456295
0.000408485
0.000408447
0.000408447
0.00041112
0.000363308
0.00036327
0.00036327
0.000365943
0.000318131
0.000318094
0.000318094
0.000320766
0.000272956
0.000272919
0.000272919
0.000275587
0.000227775
0.000227732
0.000227732
0.000230394
0.000182588
0.000182546
0.000182546
0.000185192
0.000137375
0.00013736
0.000137359
0.000140007
9.22229e-05
9.21697e-05
9.21684e-05
9.4758e-05
4.77769e-05
4.72005e-05
4.71972e-05
4.96463e-05
9.7941e-06
1.00376e-05
1.00357e-05
9.93498e-06
0.00428476
0.00428473
0.0042846
0.00428473
0.00428468
0.00428462
0.00428553
0.00428549
0.00428551
0.00428546
0.00428476
0.00428458
0.00428466
0.00428467
0.00428437
0.00428445
0.004278
0.00424245
0.00427557
0.00427528
0.00424367
0.00424355
0.00427798
0.00424264
0.00427536
0.00427541
0.0042435
0.00424368
0.00427541
0.00424325
0.00424339
0.00427787
0.00424247
0.00427486
0.004243
0.00424375
0.00424231
0.00423823
0.00420078
0.00423507
0.00423521
0.00420414
0.00420407
0.00423832
0.00420086
0.00423513
0.00423527
0.00420401
0.00420408
0.0042352
0.00420414
0.00420413
0.00423823
0.00420082
0.00423528
0.004204
0.00420416
0.00420085
0.00419454
0.00414851
0.00419194
0.00419197
0.0041524
0.00415241
0.0041946
0.0041485
0.00419191
0.00419195
0.00415241
0.0041524
0.004192
0.00415242
0.00415242
0.00419454
0.00414848
0.00419199
0.00415239
0.00415241
0.00414851
0.00414138
0.00409299
0.00413852
0.00413852
0.00409684
0.00409685
0.00414138
0.00409299
0.00413852
0.00413853
0.00409684
0.00409685
0.00413853
0.00409685
0.00409684
0.00414136
0.00409299
0.00413852
0.00409685
0.00409684
0.00409299
0.00408552
0.00403734
0.00408235
0.00408235
0.00404085
0.00404085
0.00408553
0.00403734
0.00408235
0.00408235
0.00404085
0.00404085
0.00408235
0.00404085
0.00404085
0.00408553
0.00403734
0.00408235
0.00404085
0.00404085
0.00403734
0.00403032
0.00398775
0.00402753
0.00402753
0.00399053
0.00399053
0.00403032
0.00398775
0.00402753
0.00402753
0.00399053
0.00399053
0.00402754
0.00399053
0.00399053
0.00403032
0.00398775
0.00402754
0.00399053
0.00399053
0.00398775
0.00398169
0.00394204
0.00397892
0.00397892
0.00394473
0.00394473
0.00398169
0.00394204
0.00397892
0.00397892
0.00394473
0.00394473
0.00397892
0.00394473
0.00394473
0.00398169
0.00394204
0.00397892
0.00394473
0.00394473
0.00394204
0.00393609
0.00389681
0.00393341
0.00393341
0.00389949
0.00389949
0.00393609
0.00389681
0.00393341
0.00393341
0.00389949
0.00389949
0.00393341
0.00389949
0.0038995
0.00393609
0.00389681
0.00393341
0.00389949
0.0038995
0.00389681
0.00389087
0.0038516
0.00388819
0.00388819
0.00385428
0.00385428
0.00389087
0.0038516
0.00388819
0.00388819
0.00385428
0.00385428
0.00388819
0.00385428
0.00385428
0.00389087
0.0038516
0.00388819
0.00385428
0.00385428
0.0038516
0.00384566
0.00380639
0.00384298
0.00384298
0.00380907
0.00380907
0.00384565
0.00380639
0.00384298
0.00384298
0.00380907
0.00380907
0.00384298
0.00380907
0.00380907
0.00384566
0.00380639
0.00384298
0.00380907
0.00380907
0.00380639
0.00380044
0.00376117
0.00379777
0.00379777
0.00376385
0.00376385
0.00380044
0.00376117
0.00379777
0.00379777
0.00376385
0.00376385
0.00379777
0.00376385
0.00376386
0.00380044
0.00376117
0.00379777
0.00376385
0.00376386
0.00376117
0.00375523
0.00371596
0.00375255
0.00375255
0.00371864
0.00371864
0.00375523
0.00371596
0.00375255
0.00375255
0.00371864
0.00371864
0.00375255
0.00371864
0.00371864
0.00375523
0.00371596
0.00375255
0.00371864
0.00371864
0.00371596
0.00371001
0.00367074
0.00370734
0.00370734
0.00367343
0.00367343
0.00371001
0.00367074
0.00370734
0.00370734
0.00367343
0.00367343
0.00370734
0.00367343
0.00367343
0.00371001
0.00367074
0.00370734
0.00367343
0.00367343
0.00367074
0.0036648
0.00362553
0.00366212
0.00366212
0.00362821
0.00362821
0.0036648
0.00362553
0.00366212
0.00366212
0.00362821
0.00362821
0.00366212
0.00362821
0.00362821
0.0036648
0.00362553
0.00366212
0.00362821
0.00362821
0.00362553
0.00361958
0.00358031
0.00361691
0.00361691
0.00358299
0.00358299
0.00361958
0.00358031
0.00361691
0.00361691
0.00358299
0.00358299
0.00361691
0.00358299
0.00358299
0.00361958
0.00358031
0.00361691
0.00358299
0.00358299
0.00358031
0.00357437
0.0035351
0.00357169
0.00357169
0.00353778
0.00353778
0.00357436
0.0035351
0.00357169
0.00357169
0.00353778
0.00353778
0.00357169
0.00353778
0.00353778
0.00357437
0.0035351
0.00357169
0.00353778
0.00353778
0.0035351
0.00352915
0.00348988
0.00352648
0.00352648
0.00349256
0.00349256
0.00352915
0.00348988
0.00352648
0.00352648
0.00349256
0.00349256
0.00352648
0.00349256
0.00349256
0.00352915
0.00348988
0.00352648
0.00349256
0.00349256
0.00348988
0.00348394
0.00344467
0.00348126
0.00348126
0.00344735
0.00344735
0.00348393
0.00344467
0.00348126
0.00348126
0.00344735
0.00344735
0.00348126
0.00344735
0.00344735
0.00348394
0.00344467
0.00348126
0.00344735
0.00344735
0.00344467
0.00343872
0.00339945
0.00343604
0.00343604
0.00340213
0.00340213
0.00343872
0.00339945
0.00343604
0.00343604
0.00340213
0.00340213
0.00343604
0.00340213
0.00340213
0.00343872
0.00339945
0.00343604
0.00340213
0.00340213
0.00339945
0.0033935
0.00335423
0.00339083
0.00339083
0.00335691
0.00335692
0.0033935
0.00335423
0.00339083
0.00339083
0.00335692
0.00335692
0.00339083
0.00335692
0.00335692
0.0033935
0.00335423
0.00339083
0.00335692
0.00335692
0.00335423
0.00334829
0.00330902
0.00334561
0.00334561
0.0033117
0.0033117
0.00334829
0.00330902
0.00334561
0.00334561
0.0033117
0.0033117
0.00334561
0.0033117
0.0033117
0.00334829
0.00330902
0.00334561
0.0033117
0.0033117
0.00330902
0.00330307
0.0032638
0.0033004
0.0033004
0.00326648
0.00326648
0.00330307
0.0032638
0.00330039
0.0033004
0.00326648
0.00326648
0.0033004
0.00326648
0.00326648
0.00330307
0.0032638
0.0033004
0.00326648
0.00326648
0.0032638
0.00325785
0.00321859
0.00325518
0.00325518
0.00322127
0.00322127
0.00325785
0.00321859
0.00325518
0.00325518
0.00322127
0.00322127
0.00325518
0.00322127
0.00322127
0.00325785
0.00321859
0.00325518
0.00322127
0.00322127
0.00321859
0.00321264
0.00317337
0.00320996
0.00320996
0.00317605
0.00317605
0.00321264
0.00317337
0.00320996
0.00320996
0.00317605
0.00317605
0.00320996
0.00317605
0.00317605
0.00321264
0.00317337
0.00320996
0.00317605
0.00317605
0.00317337
0.00316742
0.00312816
0.00316475
0.00316475
0.00313084
0.00313084
0.00316742
0.00312816
0.00316475
0.00316475
0.00313084
0.00313084
0.00316475
0.00313084
0.00313084
0.00316742
0.00312815
0.00316475
0.00313084
0.00313084
0.00312815
0.00312221
0.00308294
0.00311953
0.00311953
0.00308562
0.00308562
0.00312221
0.00308294
0.00311953
0.00311953
0.00308562
0.00308562
0.00311953
0.00308562
0.00308562
0.00312221
0.00308294
0.00311953
0.00308562
0.00308562
0.00308294
0.00307699
0.00303772
0.00307432
0.00307432
0.00304041
0.00304041
0.00307699
0.00303772
0.00307432
0.00307432
0.00304041
0.00304041
0.00307432
0.00304041
0.00304041
0.00307699
0.00303772
0.00307432
0.00304041
0.00304041
0.00303772
0.00303178
0.00299251
0.0030291
0.0030291
0.00299519
0.00299519
0.00303178
0.00299251
0.0030291
0.0030291
0.00299519
0.00299519
0.0030291
0.00299519
0.00299519
0.00303178
0.00299251
0.0030291
0.00299519
0.00299519
0.00299251
0.00298656
0.0029473
0.00298389
0.00298389
0.00294998
0.00294998
0.00298656
0.0029473
0.00298389
0.00298389
0.00294998
0.00294998
0.00298389
0.00294998
0.00294998
0.00298656
0.0029473
0.00298389
0.00294998
0.00294998
0.0029473
0.00294135
0.00290208
0.00293867
0.00293867
0.00290476
0.00290476
0.00294135
0.00290208
0.00293867
0.00293867
0.00290476
0.00290476
0.00293867
0.00290476
0.00290476
0.00294135
0.00290208
0.00293867
0.00290476
0.00290476
0.00290208
0.00289613
0.00285687
0.00289346
0.00289346
0.00285955
0.00285955
0.00289613
0.00285687
0.00289346
0.00289346
0.00285955
0.00285955
0.00289346
0.00285955
0.00285955
0.00289613
0.00285687
0.00289346
0.00285955
0.00285955
0.00285687
0.00285092
0.00281166
0.00284825
0.00284825
0.00281434
0.00281434
0.00285092
0.00281166
0.00284825
0.00284825
0.00281434
0.00281434
0.00284825
0.00281434
0.00281434
0.00285092
0.00281166
0.00284825
0.00281434
0.00281434
0.00281166
0.00280571
0.00276645
0.00280304
0.00280304
0.00276913
0.00276913
0.00280571
0.00276645
0.00280304
0.00280304
0.00276913
0.00276913
0.00280304
0.00276913
0.00276913
0.00280571
0.00276645
0.00280304
0.00276913
0.00276913
0.00276645
0.0027605
0.00272124
0.00275783
0.00275783
0.00272392
0.00272392
0.0027605
0.00272124
0.00275783
0.00275783
0.00272392
0.00272392
0.00275783
0.00272392
0.00272392
0.0027605
0.00272124
0.00275783
0.00272392
0.00272392
0.00272124
0.00271529
0.00267603
0.00271262
0.00271262
0.00267871
0.00267871
0.00271529
0.00267603
0.00271262
0.00271262
0.00267871
0.00267871
0.00271262
0.00267871
0.00267871
0.00271529
0.00267603
0.00271262
0.00267871
0.00267871
0.00267603
0.00267008
0.00263082
0.00266741
0.00266741
0.00263351
0.00263351
0.00267008
0.00263082
0.00266741
0.00266741
0.00263351
0.00263351
0.00266741
0.00263351
0.00263351
0.00267008
0.00263082
0.00266741
0.00263351
0.00263351
0.00263082
0.00262488
0.00258562
0.0026222
0.0026222
0.0025883
0.0025883
0.00262488
0.00258562
0.0026222
0.0026222
0.0025883
0.0025883
0.0026222
0.0025883
0.0025883
0.00262488
0.00258562
0.0026222
0.0025883
0.0025883
0.00258562
0.00257967
0.00254042
0.002577
0.002577
0.0025431
0.0025431
0.00257967
0.00254042
0.002577
0.002577
0.0025431
0.0025431
0.002577
0.0025431
0.0025431
0.00257967
0.00254042
0.002577
0.0025431
0.0025431
0.00254042
0.00253447
0.00249522
0.0025318
0.0025318
0.0024979
0.0024979
0.00253447
0.00249522
0.0025318
0.0025318
0.0024979
0.0024979
0.0025318
0.0024979
0.0024979
0.00253447
0.00249522
0.0025318
0.0024979
0.0024979
0.00249522
0.00248927
0.00245002
0.0024866
0.0024866
0.0024527
0.0024527
0.00248927
0.00245002
0.0024866
0.0024866
0.0024527
0.0024527
0.0024866
0.0024527
0.0024527
0.00248927
0.00245002
0.0024866
0.0024527
0.0024527
0.00245002
0.00244407
0.00240482
0.0024414
0.0024414
0.0024075
0.0024075
0.00244407
0.00240482
0.0024414
0.0024414
0.0024075
0.0024075
0.0024414
0.0024075
0.0024075
0.00244407
0.00240482
0.0024414
0.0024075
0.0024075
0.00240482
0.00239887
0.00235962
0.0023962
0.0023962
0.0023623
0.0023623
0.00239887
0.00235962
0.0023962
0.0023962
0.0023623
0.0023623
0.0023962
0.0023623
0.0023623
0.00239887
0.00235962
0.0023962
0.0023623
0.0023623
0.00235962
0.00235367
0.00231442
0.002351
0.002351
0.0023171
0.0023171
0.00235367
0.00231442
0.002351
0.002351
0.0023171
0.0023171
0.002351
0.0023171
0.0023171
0.00235367
0.00231442
0.002351
0.0023171
0.0023171
0.00231442
0.00230848
0.00226923
0.00230581
0.00230581
0.00227191
0.00227191
0.00230848
0.00226923
0.00230581
0.00230581
0.00227191
0.00227191
0.00230581
0.00227191
0.00227191
0.00230848
0.00226923
0.00230581
0.00227191
0.00227191
0.00226923
0.00226329
0.00222404
0.00226061
0.00226061
0.00222672
0.00222672
0.00226328
0.00222404
0.00226061
0.00226061
0.00222672
0.00222672
0.00226061
0.00222672
0.00222672
0.00226329
0.00222404
0.00226061
0.00222672
0.00222672
0.00222404
0.00221809
0.00217884
0.00221542
0.00221542
0.00218152
0.00218152
0.00221809
0.00217884
0.00221542
0.00221542
0.00218152
0.00218152
0.00221542
0.00218152
0.00218152
0.00221809
0.00217884
0.00221542
0.00218152
0.00218152
0.00217884
0.0021729
0.00213365
0.00217023
0.00217023
0.00213633
0.00213633
0.0021729
0.00213365
0.00217023
0.00217023
0.00213633
0.00213633
0.00217023
0.00213633
0.00213633
0.0021729
0.00213365
0.00217023
0.00213633
0.00213633
0.00213365
0.00212771
0.00208847
0.00212504
0.00212504
0.00209115
0.00209115
0.00212771
0.00208847
0.00212504
0.00212504
0.00209115
0.00209115
0.00212504
0.00209115
0.00209115
0.00212771
0.00208847
0.00212504
0.00209115
0.00209115
0.00208847
0.00208252
0.00204328
0.00207985
0.00207985
0.00204596
0.00204596
0.00208252
0.00204328
0.00207985
0.00207985
0.00204596
0.00204596
0.00207985
0.00204596
0.00204596
0.00208252
0.00204328
0.00207985
0.00204596
0.00204596
0.00204328
0.00203734
0.00199809
0.00203466
0.00203466
0.00200077
0.00200077
0.00203733
0.00199809
0.00203466
0.00203466
0.00200077
0.00200077
0.00203466
0.00200077
0.00200077
0.00203734
0.00199809
0.00203466
0.00200077
0.00200077
0.00199809
0.00199215
0.00195291
0.00198948
0.00198948
0.00195559
0.00195559
0.00199215
0.00195291
0.00198948
0.00198948
0.00195559
0.00195559
0.00198948
0.00195559
0.00195559
0.00199215
0.00195291
0.00198948
0.00195559
0.00195559
0.00195291
0.00194697
0.00190773
0.00194429
0.00194429
0.00191041
0.00191041
0.00194697
0.00190773
0.00194429
0.00194429
0.00191041
0.00191041
0.00194429
0.00191041
0.00191041
0.00194697
0.00190773
0.00194429
0.00191041
0.00191041
0.00190773
0.00190178
0.00186255
0.00189911
0.00189911
0.00186523
0.00186523
0.00190178
0.00186255
0.00189911
0.00189911
0.00186523
0.00186523
0.00189911
0.00186523
0.00186523
0.00190178
0.00186255
0.00189911
0.00186523
0.00186523
0.00186255
0.0018566
0.00181737
0.00185393
0.00185393
0.00182005
0.00182005
0.0018566
0.00181737
0.00185393
0.00185393
0.00182005
0.00182005
0.00185393
0.00182005
0.00182005
0.0018566
0.00181737
0.00185393
0.00182005
0.00182005
0.00181737
0.00181143
0.00177219
0.00180875
0.00180875
0.00177487
0.00177487
0.00181143
0.00177219
0.00180875
0.00180875
0.00177487
0.00177487
0.00180875
0.00177487
0.00177487
0.00181143
0.00177219
0.00180875
0.00177487
0.00177487
0.00177219
0.00176625
0.00172702
0.00176358
0.00176358
0.0017297
0.0017297
0.00176625
0.00172702
0.00176358
0.00176358
0.0017297
0.0017297
0.00176358
0.0017297
0.0017297
0.00176625
0.00172702
0.00176358
0.0017297
0.0017297
0.00172702
0.00172107
0.00168184
0.0017184
0.0017184
0.00168452
0.00168452
0.00172107
0.00168184
0.0017184
0.0017184
0.00168452
0.00168452
0.0017184
0.00168452
0.00168452
0.00172107
0.00168184
0.0017184
0.00168452
0.00168452
0.00168184
0.0016759
0.00163667
0.00167323
0.00167323
0.00163935
0.00163935
0.0016759
0.00163667
0.00167323
0.00167323
0.00163935
0.00163935
0.00167323
0.00163935
0.00163935
0.0016759
0.00163667
0.00167323
0.00163935
0.00163935
0.00163667
0.00163073
0.00159149
0.00162805
0.00162805
0.00159417
0.00159417
0.00163073
0.0015915
0.00162805
0.00162805
0.00159417
0.00159417
0.00162805
0.00159417
0.00159417
0.00163073
0.0015915
0.00162805
0.00159417
0.00159417
0.0015915
0.00158555
0.00154632
0.00158288
0.00158288
0.001549
0.001549
0.00158555
0.00154632
0.00158288
0.00158288
0.001549
0.001549
0.00158288
0.001549
0.001549
0.00158555
0.00154632
0.00158288
0.001549
0.001549
0.00154632
0.00154038
0.00150115
0.00153771
0.00153771
0.00150383
0.00150383
0.00154038
0.00150115
0.00153771
0.00153771
0.00150383
0.00150383
0.00153771
0.00150383
0.00150383
0.00154038
0.00150115
0.00153771
0.00150383
0.00150383
0.00150115
0.00149521
0.00145598
0.00149254
0.00149254
0.00145866
0.00145866
0.00149521
0.00145598
0.00149254
0.00149254
0.00145866
0.00145866
0.00149254
0.00145866
0.00145866
0.00149521
0.00145598
0.00149254
0.00145866
0.00145866
0.00145598
0.00145004
0.0014108
0.00144736
0.00144736
0.00141348
0.00141348
0.00145004
0.0014108
0.00144736
0.00144736
0.00141348
0.00141348
0.00144736
0.00141348
0.00141348
0.00145004
0.0014108
0.00144736
0.00141348
0.00141348
0.0014108
0.00140486
0.00136563
0.00140219
0.00140219
0.00136831
0.00136831
0.00140486
0.00136563
0.00140219
0.00140219
0.00136831
0.00136831
0.00140219
0.00136831
0.00136831
0.00140486
0.00136563
0.00140219
0.00136831
0.00136831
0.00136563
0.00135969
0.00132046
0.00135702
0.00135702
0.00132314
0.00132314
0.00135969
0.00132046
0.00135702
0.00135702
0.00132314
0.00132314
0.00135702
0.00132314
0.00132314
0.00135969
0.00132046
0.00135702
0.00132314
0.00132314
0.00132046
0.00131452
0.00127528
0.00131184
0.00131184
0.00127796
0.00127796
0.00131452
0.00127528
0.00131184
0.00131184
0.00127796
0.00127796
0.00131184
0.00127796
0.00127796
0.00131452
0.00127528
0.00131184
0.00127796
0.00127796
0.00127528
0.00126934
0.00123011
0.00126667
0.00126667
0.00123279
0.00123279
0.00126934
0.00123011
0.00126667
0.00126667
0.00123279
0.00123279
0.00126667
0.00123279
0.00123279
0.00126934
0.00123011
0.00126667
0.00123279
0.00123279
0.00123011
0.00122417
0.00118494
0.0012215
0.0012215
0.00118761
0.00118761
0.00122417
0.00118494
0.0012215
0.0012215
0.00118761
0.00118761
0.0012215
0.00118761
0.00118761
0.00122417
0.00118494
0.0012215
0.00118761
0.00118761
0.00118494
0.00117899
0.00113976
0.00117632
0.00117632
0.00114244
0.00114244
0.00117899
0.00113976
0.00117632
0.00117632
0.00114244
0.00114244
0.00117632
0.00114244
0.00114244
0.00117899
0.00113976
0.00117632
0.00114244
0.00114244
0.00113976
0.00113382
0.00109459
0.00113115
0.00113115
0.00109727
0.00109727
0.00113382
0.00109459
0.00113115
0.00113115
0.00109727
0.00109727
0.00113115
0.00109727
0.00109727
0.00113382
0.00109459
0.00113115
0.00109727
0.00109727
0.00109459
0.00108865
0.00104942
0.00108598
0.00108598
0.0010521
0.0010521
0.00108865
0.00104942
0.00108598
0.00108598
0.0010521
0.0010521
0.00108598
0.0010521
0.0010521
0.00108865
0.00104942
0.00108598
0.0010521
0.0010521
0.00104942
0.00104348
0.00100425
0.00104081
0.00104081
0.00100693
0.00100693
0.00104348
0.00100425
0.0010408
0.00104081
0.00100693
0.00100693
0.00104081
0.00100693
0.00100693
0.00104348
0.00100425
0.00104081
0.00100693
0.00100693
0.00100425
0.000998307
0.000959078
0.000995635
0.000995634
0.000961757
0.000961757
0.000998307
0.000959078
0.000995634
0.000995635
0.000961757
0.000961757
0.000995635
0.000961757
0.000961757
0.000998307
0.000959078
0.000995634
0.000961757
0.000961757
0.000959078
0.000953137
0.00091391
0.000950465
0.000950465
0.00091659
0.000916589
0.000953137
0.000913911
0.000950465
0.000950465
0.000916589
0.000916589
0.000950465
0.000916589
0.00091659
0.000953137
0.00091391
0.000950465
0.000916589
0.000916589
0.00091391
0.00090797
0.000868743
0.000905298
0.000905298
0.000871422
0.000871422
0.00090797
0.000868744
0.000905297
0.000905298
0.000871422
0.000871422
0.000905298
0.000871422
0.000871422
0.00090797
0.000868743
0.000905298
0.000871422
0.000871422
0.000868743
0.000862803
0.000823578
0.000860131
0.000860131
0.000826257
0.000826256
0.000862803
0.000823578
0.000860131
0.000860131
0.000826256
0.000826256
0.000860131
0.000826256
0.000826257
0.000862803
0.000823578
0.000860131
0.000826256
0.000826256
0.000823577
0.000817637
0.000778412
0.000814965
0.000814965
0.000781091
0.000781091
0.000817637
0.000778412
0.000814965
0.000814965
0.000781091
0.000781091
0.000814965
0.000781091
0.000781091
0.000817637
0.000778412
0.000814965
0.000781091
0.000781091
0.000778412
0.000772472
0.000733246
0.0007698
0.000769799
0.000735925
0.000735925
0.000772472
0.000733246
0.000769799
0.0007698
0.000735925
0.000735925
0.0007698
0.000735925
0.000735925
0.000772472
0.000733246
0.0007698
0.000735925
0.000735925
0.000733246
0.000727306
0.00068808
0.000724633
0.000724633
0.000690759
0.000690759
0.000727305
0.000688081
0.000724633
0.000724633
0.000690759
0.000690759
0.000724633
0.000690759
0.000690759
0.000727306
0.00068808
0.000724633
0.000690759
0.000690759
0.00068808
0.00068214
0.000642915
0.000679468
0.000679468
0.000645594
0.000645594
0.00068214
0.000642915
0.000679468
0.000679468
0.000645594
0.000645594
0.000679468
0.000645594
0.000645594
0.00068214
0.000642915
0.000679468
0.000645594
0.000645594
0.000642915
0.000636975
0.000597747
0.000634302
0.000634302
0.000600426
0.000600426
0.000636974
0.000597747
0.000634302
0.000634302
0.000600426
0.000600426
0.000634302
0.000600426
0.000600426
0.000636975
0.000597747
0.000634302
0.000600426
0.000600426
0.000597747
0.000591806
0.000552577
0.000589134
0.000589133
0.000555256
0.000555256
0.000591806
0.000552577
0.000589133
0.000589133
0.000555256
0.000555256
0.000589134
0.000555256
0.000555256
0.000591806
0.000552577
0.000589133
0.000555256
0.000555256
0.000552577
0.000546636
0.000507407
0.000543964
0.000543964
0.000510086
0.000510086
0.000546636
0.000507407
0.000543963
0.000543964
0.000510086
0.000510086
0.000543964
0.000510086
0.000510086
0.000546636
0.000507407
0.000543964
0.000510086
0.000510086
0.000507407
0.000501466
0.000462236
0.000498794
0.000498793
0.000464915
0.000464915
0.000501466
0.000462236
0.000498793
0.000498794
0.000464915
0.000464915
0.000498794
0.000464915
0.000464915
0.000501466
0.000462236
0.000498794
0.000464915
0.000464915
0.000462236
0.000456295
0.000417062
0.000453622
0.000453622
0.000419741
0.000419741
0.000456295
0.000417062
0.000453622
0.000453622
0.000419741
0.000419741
0.000453622
0.000419741
0.000419741
0.000456295
0.000417062
0.000453622
0.000419741
0.000419741
0.000417062
0.00041112
0.000371885
0.000408447
0.000408447
0.000374565
0.000374564
0.00041112
0.000371885
0.000408447
0.000408447
0.000374564
0.000374564
0.000408447
0.000374564
0.000374565
0.00041112
0.000371885
0.000408447
0.000374564
0.000374564
0.000371885
0.000365943
0.000326708
0.00036327
0.00036327
0.000329387
0.000329387
0.000365943
0.000326708
0.00036327
0.00036327
0.000329387
0.000329387
0.000363271
0.000329387
0.000329387
0.000365943
0.000326707
0.00036327
0.000329387
0.000329387
0.000326707
0.000320766
0.000281531
0.000318094
0.000318094
0.00028421
0.00028421
0.000320766
0.000281531
0.000318094
0.000318094
0.00028421
0.00028421
0.000318094
0.00028421
0.00028421
0.000320766
0.000281531
0.000318094
0.00028421
0.00028421
0.000281531
0.000275587
0.000236354
0.000272919
0.000272919
0.000239031
0.00023903
0.000275587
0.000236354
0.000272919
0.000272919
0.00023903
0.00023903
0.000272919
0.00023903
0.00023903
0.000275587
0.000236354
0.000272919
0.00023903
0.00023903
0.000236354
0.000230394
0.000191173
0.000227732
0.000227732
0.000193853
0.000193854
0.000230394
0.000191173
0.000227732
0.000227732
0.000193854
0.000193853
0.000227732
0.000193855
0.000193853
0.000230394
0.000191172
0.000227732
0.000193854
0.000193854
0.000191172
0.000185192
0.000146016
0.000182546
0.000182546
0.000148665
0.000148666
0.000185192
0.000146017
0.000182546
0.000182546
0.000148665
0.000148665
0.000182546
0.000148666
0.000148665
0.000185191
0.000146016
0.000182546
0.000148665
0.000148665
0.000146016
0.000140007
0.000100784
0.00013736
0.00013736
0.000103451
0.000103452
0.000140007
0.000100785
0.00013736
0.000137359
0.000103451
0.000103451
0.00013736
0.000103451
0.00010345
0.000140007
0.000100783
0.00013736
0.00010345
0.00010345
0.000100783
9.47594e-05
5.56952e-05
9.217e-05
9.21706e-05
5.83546e-05
5.83553e-05
9.47594e-05
5.56962e-05
9.21691e-05
9.21685e-05
5.83524e-05
5.83517e-05
9.2169e-05
5.83535e-05
5.83517e-05
9.47587e-05
5.56926e-05
9.21686e-05
5.83506e-05
5.83501e-05
5.56921e-05
4.96504e-05
1.40708e-05
4.72025e-05
4.72025e-05
1.65979e-05
1.65976e-05
4.96507e-05
1.40713e-05
4.72006e-05
4.71989e-05
1.65961e-05
1.65928e-05
4.71979e-05
1.65946e-05
1.65906e-05
4.9647e-05
1.40665e-05
4.71968e-05
1.65922e-05
1.6592e-05
1.40657e-05
9.93811e-06
1.00395e-05
1.00396e-05
9.93988e-06
1.00372e-05
1.00355e-05
9.79362e-06
9.79175e-06
9.79115e-06
1.00343e-05
9.93564e-06
1.00345e-05
0.00429082
0.00429772
0.004294
0.00429403
0.00431156
0.00430069
0.00432311
0.00429616
0.00431158
0.00430071
0.00429617
0.004324
0.00430506
0.00432746
0.00433088
0.00425722
0.00427304
0.0042772
0.00424987
0.00424927
0.00425142
0.00425739
0.00427242
0.00427704
0.00424862
0.00427508
0.00427508
0.00427506
0.00424327
0.00424331
0.00424323
0.00424315
0.00425624
0.00427292
0.00427548
0.00426328
0.00427797
0.00425376
0.00426402
0.00424937
0.00425147
0.00425625
0.00427545
0.00427246
0.0042633
0.00427789
0.00426397
0.00425374
0.00427749
0.00428013
0.00425854
0.0042527
0.00425222
0.00422603
0.00424146
0.00424356
0.0042243
0.0042392
0.00422262
0.00422621
0.00424181
0.0042438
0.00422405
0.00423438
0.00423432
0.00423433
0.00420394
0.00420398
0.00420398
0.00420399
0.00422294
0.00424218
0.00423423
0.00422612
0.00424027
0.00422499
0.00422511
0.00423913
0.00422256
0.00422298
0.00423431
0.00424211
0.00422612
0.00424011
0.00422516
0.00422433
0.004243
0.00424296
0.00422315
0.00422553
0.00422544
0.00417994
0.00419561
0.00419959
0.00417598
0.00419442
0.00417477
0.00417993
0.00419608
0.00419961
0.00417615
0.00419182
0.00419182
0.00419183
0.00415242
0.00415242
0.0041524
0.00415242
0.00417601
0.00419734
0.00419133
0.00417922
0.00419543
0.00417786
0.00417853
0.00419436
0.00417475
0.00417595
0.00419128
0.00419761
0.00417923
0.00419536
0.00417848
0.00417774
0.00419724
0.00419716
0.00417539
0.00417753
0.00417752
0.00412285
0.0041409
0.00414462
0.00411985
0.00413977
0.00411889
0.00412285
0.00414091
0.00414462
0.00411986
0.00413862
0.00413861
0.00413862
0.0040968
0.0040968
0.0040968
0.0040968
0.00412094
0.00414296
0.00413818
0.00412494
0.0041416
0.00412193
0.00412453
0.00413981
0.00411891
0.00412094
0.00413816
0.0041429
0.00412493
0.00414159
0.00412453
0.00412192
0.00414207
0.00414206
0.00412111
0.00412086
0.00412086
0.0040648
0.00408491
0.00408676
0.00406341
0.00408456
0.00406279
0.0040648
0.00408491
0.00408676
0.00406341
0.0040827
0.0040827
0.0040827
0.00404111
0.00404111
0.00404111
0.00404112
0.00406464
0.00408628
0.00408236
0.00406824
0.00408581
0.00406483
0.00406829
0.00408456
0.00406279
0.00406464
0.00408236
0.00408628
0.00406825
0.00408581
0.00406829
0.00406483
0.00408596
0.00408596
0.00406498
0.00406411
0.0040641
0.00401017
0.00402826
0.00402848
0.00400987
0.00402792
0.00400985
0.00401017
0.00402826
0.00402848
0.00400987
0.00402785
0.00402786
0.00402786
0.00399086
0.00399086
0.00399086
0.00399086
0.00401087
0.00402941
0.00402781
0.00401467
0.00402942
0.00401059
0.00401487
0.00402791
0.00400987
0.00401085
0.00402785
0.0040294
0.00401466
0.00402939
0.00401487
0.00401058
0.00402892
0.00402892
0.00401164
0.00401037
0.00401036
0.00396455
0.00398137
0.00398153
0.00396448
0.00398143
0.00396451