/*--------------------------------*- C++ -*----------------------------------*\
| =========                 |                                                 |
| \\      /  F ield         | OpenFOAM: The Open Source CFD Toolbox           |
|  \\    /   O peration     | Version:  v1906                                 |
|   \\  /    A nd           | Web:      www.OpenFOAM.com                      |
|    \\/     M anipulation  |                                                 |
\*---------------------------------------------------------------------------*/
FoamFile
{
    version     2.0;
    format      ascii;
    class       volScalarField;
    location    "175";
    object      epsilon;
}
// * * * * * * * * * * * * * * * * * * * * * * * * * * * * * * * * * * * * * //

dimensions      [0 2 -3 0 0 0 0];


internalField   nonuniform List<scalar> 
171728
(
1.50664e-08
5.11595e-09
4.95311e-09
4.85768e-09
1.50016e-08
4.80506e-09
4.67511e-09
4.40973e-09
1.53065e-08
4.55661e-09
4.40759e-09
4.05312e-09
1.5624e-08
4.35981e-09
4.20873e-09
3.73849e-09
1.59606e-08
4.20876e-09
4.06156e-09
3.47259e-09
1.6317e-08
4.11291e-09
3.96751e-09
3.26958e-09
1.66841e-08
4.08378e-09
3.93489e-09
3.11374e-09
1.7074e-08
4.10983e-09
3.9548e-09
2.96427e-09
1.74803e-08
4.1913e-09
4.03084e-09
2.84779e-09
1.78992e-08
4.33073e-09
4.16944e-09
2.76758e-09
1.83235e-08
4.53381e-09
4.36368e-09
2.72946e-09
1.87502e-08
4.80813e-09
4.61425e-09
2.73561e-09
1.91813e-08
5.15714e-09
4.9364e-09
2.7959e-09
1.96081e-08
5.59069e-09
5.34816e-09
2.92995e-09
2.00379e-08
6.12604e-09
5.8609e-09
3.17907e-09
2.04662e-08
6.80888e-09
6.52733e-09
3.60336e-09
2.08979e-08
7.71034e-09
7.40148e-09
4.29595e-09
2.13358e-08
8.92603e-09
8.54436e-09
5.42292e-09
2.17817e-08
1.06073e-08
1.01409e-08
7.24015e-09
2.22621e-08
1.29735e-08
1.23881e-08
1.03122e-08
2.27776e-08
1.62846e-08
1.55106e-08
1.54053e-08
2.33519e-08
2.09817e-08
1.99861e-08
2.38945e-08
2.40262e-08
2.73767e-08
2.61493e-08
3.75916e-08
2.47938e-08
3.61962e-08
3.44082e-08
5.85549e-08
2.56754e-08
4.79031e-08
4.52523e-08
8.91348e-08
2.68017e-08
6.22894e-08
5.89826e-08
1.31251e-07
2.82047e-08
7.90002e-08
7.60994e-08
1.86124e-07
2.99372e-08
9.84581e-08
9.65722e-08
2.5217e-07
3.21074e-08
1.21558e-07
1.20786e-07
3.26677e-07
3.48391e-08
1.47908e-07
1.48562e-07
4.05834e-07
3.83139e-08
1.79217e-07
1.80609e-07
4.84564e-07
4.26649e-08
2.15334e-07
2.16308e-07
5.60788e-07
4.80171e-08
2.54522e-07
2.55082e-07
6.25447e-07
5.44247e-08
2.9481e-07
2.95708e-07
6.7761e-07
6.24218e-08
3.35857e-07
3.37362e-07
7.25192e-07
7.22858e-08
3.7567e-07
3.76727e-07
7.64929e-07
8.46486e-08
4.11511e-07
4.12029e-07
7.87734e-07
1.00657e-07
4.50432e-07
4.50819e-07
8.0396e-07
1.22712e-07
5.02276e-07
5.02576e-07
8.30174e-07
1.52957e-07
5.67382e-07
5.67594e-07
8.7351e-07
1.89078e-07
6.31882e-07
6.32043e-07
9.22636e-07
2.25805e-07
6.85074e-07
6.85207e-07
9.67313e-07
2.55787e-07
7.20675e-07
7.20802e-07
1.00054e-06
2.73551e-07
7.37705e-07
7.37829e-07
1.01744e-06
2.81532e-07
7.44281e-07
7.44396e-07
1.02422e-06
2.84464e-07
7.46515e-07
7.46625e-07
1.02685e-06
2.85386e-07
7.47215e-07
7.47325e-07
1.02776e-06
2.85605e-07
7.47357e-07
7.47467e-07
1.02803e-06
2.85626e-07
7.47314e-07
7.47424e-07
1.02781e-06
2.85642e-07
7.47344e-07
7.47453e-07
1.02788e-06
2.85645e-07
7.4736e-07
7.47467e-07
1.02803e-06
2.85639e-07
7.47328e-07
7.47435e-07
1.02781e-06
2.85642e-07
7.47352e-07
7.4746e-07
1.02803e-06
2.85642e-07
7.47338e-07
7.47445e-07
1.02783e-06
2.85644e-07
7.4734e-07
7.47449e-07
1.02796e-06
2.85645e-07
7.47346e-07
7.47453e-07
1.02795e-06
2.85645e-07
7.47344e-07
7.4745e-07
1.02786e-06
2.85646e-07
7.4734e-07
7.47447e-07
1.02791e-06
2.85646e-07
7.47346e-07
7.47453e-07
1.02798e-06
2.85646e-07
7.47349e-07
7.47455e-07
1.02796e-06
2.85647e-07
7.47342e-07
7.4745e-07
1.02789e-06
2.85647e-07
7.47345e-07
7.47454e-07
1.02788e-06
2.85647e-07
7.47346e-07
7.47453e-07
1.0279e-06
2.85647e-07
7.47343e-07
7.47449e-07
1.02799e-06
2.85648e-07
7.47345e-07
7.4745e-07
1.0279e-06
2.85647e-07
7.47349e-07
7.47456e-07
1.02796e-06
2.85649e-07
7.47344e-07
7.47451e-07
1.02797e-06
2.85648e-07
7.47343e-07
7.47451e-07
1.02787e-06
2.85647e-07
7.47349e-07
7.47452e-07
1.02794e-06
2.85647e-07
7.47345e-07
7.47447e-07
1.02802e-06
2.85646e-07
7.47341e-07
7.47451e-07
1.02795e-06
2.85645e-07
7.47342e-07
7.47448e-07
1.02786e-06
2.85644e-07
7.47344e-07
7.47446e-07
1.02783e-06
2.85643e-07
7.47346e-07
7.47448e-07
1.02785e-06
2.85642e-07
7.47339e-07
7.47445e-07
1.02788e-06
2.85641e-07
7.47341e-07
7.4744e-07
1.02789e-06
2.85641e-07
7.4734e-07
7.47445e-07
1.02791e-06
2.8564e-07
7.47336e-07
7.4744e-07
1.02791e-06
2.8564e-07
7.47335e-07
7.4744e-07
1.02789e-06
2.8564e-07
7.47335e-07
7.47439e-07
1.02787e-06
2.8564e-07
7.47335e-07
7.47442e-07
1.02787e-06
2.85639e-07
7.47335e-07
7.47442e-07
1.02787e-06
2.85639e-07
7.47336e-07
7.4744e-07
1.02785e-06
2.85638e-07
7.47339e-07
7.47444e-07
1.02784e-06
2.85638e-07
7.47342e-07
7.4745e-07
1.02786e-06
2.85638e-07
7.47345e-07
7.4745e-07
1.02786e-06
2.85638e-07
7.47351e-07
7.47455e-07
1.02785e-06
2.85639e-07
7.4736e-07
7.47465e-07
1.02784e-06
2.85639e-07
7.47367e-07
7.47472e-07
1.02785e-06
2.8564e-07
7.47378e-07
7.47482e-07
1.02785e-06
2.8564e-07
7.47397e-07
7.47501e-07
1.02783e-06
2.85642e-07
7.47425e-07
7.47528e-07
1.02784e-06
2.8564e-07
7.47458e-07
7.47559e-07
1.02783e-06
2.85184e-07
7.47197e-07
7.4729e-07
1.02751e-06
2.70919e-07
6.97295e-07
6.97307e-07
9.82507e-07
4.87199e-09
4.45319e-09
4.37942e-09
5.34829e-09
3.8319e-09
4.45033e-09
1.54537e-08
1.55445e-08
1.54848e-08
1.5369e-08
4.47838e-09
3.82771e-09
5.07226e-09
4.2895e-09
4.50056e-09
4.90458e-09
4.84045e-09
4.46162e-09
5.10805e-09
5.07276e-09
4.85263e-09
4.83676e-09
5.31761e-09
4.8751e-09
4.51324e-09
5.19158e-09
4.29273e-09
4.94685e-09
5.10104e-09
4.87864e-09
4.61293e-09
5.03081e-09
4.65808e-09
5.12496e-09
4.74918e-09
4.86631e-09
4.47576e-09
4.39309e-09
4.06994e-09
4.77188e-09
4.76087e-09
4.55446e-09
4.55149e-09
4.81098e-09
4.44301e-09
4.22446e-09
4.87041e-09
4.04218e-09
4.66538e-09
4.46058e-09
4.61439e-09
4.10714e-09
4.59074e-09
4.28502e-09
4.78564e-09
4.46803e-09
4.56701e-09
4.11039e-09
4.01051e-09
3.75338e-09
4.48856e-09
4.4875e-09
4.31028e-09
4.31334e-09
4.37888e-09
4.08642e-09
3.98889e-09
4.6055e-09
3.85573e-09
4.44525e-09
4.01775e-09
4.40544e-09
3.80683e-09
4.22751e-09
3.97702e-09
4.50293e-09
4.25341e-09
4.33105e-09
3.78954e-09
3.704e-09
3.49691e-09
4.25819e-09
4.26209e-09
4.12169e-09
4.13e-09
4.03134e-09
3.79247e-09
3.81883e-09
4.39882e-09
3.73703e-09
4.27665e-09
3.75363e-09
4.24381e-09
3.63383e-09
3.92819e-09
3.71982e-09
4.28082e-09
4.09514e-09
4.14598e-09
3.51519e-09
3.45763e-09
3.30062e-09
4.08553e-09
4.09194e-09
3.99575e-09
4.00266e-09
3.74637e-09
3.55862e-09
3.71733e-09
4.24321e-09
3.68473e-09
4.16124e-09
3.60643e-09
4.13161e-09
3.54663e-09
3.67791e-09
3.51016e-09
4.10911e-09
3.98696e-09
4.01905e-09
3.30174e-09
3.26963e-09
3.13627e-09
3.97184e-09
3.98076e-09
3.92361e-09
3.93764e-09
3.5225e-09
3.35937e-09
3.67672e-09
4.14021e-09
3.67533e-09
4.10228e-09
3.53747e-09
4.08348e-09
3.52383e-09
3.47684e-09
3.32945e-09
3.99774e-09
3.93633e-09
3.95381e-09
3.12832e-09
3.12207e-09
2.99767e-09
3.9133e-09
3.92753e-09
3.91406e-09
3.92108e-09
3.34363e-09
3.20453e-09
3.67918e-09
4.09846e-09
3.71227e-09
4.10612e-09
3.52533e-09
4.10047e-09
3.54693e-09
3.31286e-09
3.18447e-09
3.94469e-09
3.94684e-09
3.94392e-09
2.97636e-09
2.98672e-09
2.89959e-09
3.91966e-09
3.9245e-09
3.96484e-09
3.95946e-09
3.19224e-09
3.08323e-09
3.73126e-09
4.11518e-09
3.81189e-09
4.16428e-09
3.56047e-09
4.17077e-09
3.62236e-09
3.17288e-09
3.07982e-09
3.94867e-09
4.01013e-09
3.98717e-09
2.85647e-09
2.8922e-09
2.83526e-09
3.98674e-09
3.97702e-09
4.0737e-09
4.0512e-09
3.07366e-09
2.99133e-09
3.84646e-09
4.18714e-09
3.97233e-09
4.27738e-09
3.64999e-09
4.29429e-09
3.75172e-09
3.07183e-09
3.01108e-09
4.00729e-09
4.13327e-09
4.09323e-09
2.77254e-09
2.83122e-09
2.80394e-09
4.10855e-09
4.08302e-09
4.23687e-09
4.191e-09
2.98531e-09
2.93176e-09
4.02114e-09
4.31508e-09
4.18836e-09
4.44849e-09
3.79288e-09
4.48121e-09
3.93377e-09
3.00697e-09
2.97983e-09
4.13048e-09
4.31375e-09
4.26111e-09
2.72674e-09
2.80798e-09
2.8159e-09
4.28569e-09
4.23377e-09
4.45903e-09
4.38723e-09
2.93233e-09
2.91846e-09
4.25132e-09
4.50225e-09
4.45799e-09
4.68601e-09
3.98848e-09
4.73818e-09
4.17561e-09
2.98394e-09
2.99252e-09
4.31187e-09
4.55009e-09
4.48909e-09
2.72487e-09
2.82807e-09
2.87604e-09
4.52367e-09
4.44769e-09
4.74437e-09
4.66068e-09
2.92882e-09
2.96656e-09
4.53475e-09
4.7561e-09
4.79466e-09
4.99374e-09
4.24543e-09
5.06839e-09
4.48411e-09
3.00498e-09
3.05769e-09
4.55607e-09
4.85468e-09
4.78359e-09
2.77438e-09
2.89793e-09
3.00449e-09
4.82583e-09
4.74321e-09
5.1091e-09
5.03206e-09
2.98815e-09
3.08615e-09
4.88963e-09
5.08167e-09
5.20913e-09
5.38246e-09
4.57316e-09
5.47965e-09
4.87375e-09
3.08136e-09
3.19868e-09
4.86863e-09
5.24104e-09
5.15698e-09
2.88926e-09
3.04734e-09
3.23346e-09
5.21206e-09
5.14138e-09
5.57254e-09
5.51616e-09
3.12743e-09
3.30796e-09
5.32993e-09
5.49693e-09
5.73721e-09
5.87465e-09
4.98747e-09
5.9853e-09
5.36998e-09
3.24486e-09
3.45282e-09
5.26625e-09
5.72656e-09
5.63377e-09
3.10869e-09
3.30592e-09
3.61739e-09
5.70615e-09
5.66001e-09
6.17246e-09
6.14631e-09
3.38015e-09
3.68494e-09
5.88672e-09
6.01859e-09
6.40015e-09
6.49895e-09
5.51337e-09
6.62673e-09
6.00396e-09
3.52995e-09
3.8556e-09
5.77141e-09
6.34708e-09
6.24568e-09
3.48022e-09
3.73956e-09
4.23185e-09
6.34917e-09
6.33397e-09
6.97438e-09
6.98342e-09
3.80689e-09
4.28522e-09
6.59504e-09
6.68236e-09
7.25485e-09
7.31165e-09
6.19092e-09
7.46615e-09
6.83845e-09
3.98452e-09
4.50317e-09
6.42825e-09
7.16792e-09
7.05358e-09
4.09469e-09
4.43421e-09
5.22023e-09
7.21382e-09
7.23401e-09
8.05155e-09
8.0992e-09
4.48427e-09
5.2411e-09
7.50834e-09
7.55409e-09
8.38906e-09
8.38996e-09
7.08564e-09
8.59449e-09
7.95462e-09
4.71151e-09
5.51674e-09
7.29568e-09
8.2301e-09
8.13513e-09
5.09257e-09
5.54626e-09
6.84304e-09
8.37644e-09
8.43727e-09
9.53706e-09
9.62708e-09
5.55985e-09
6.80269e-09
8.72604e-09
8.71739e-09
9.91933e-09
9.87189e-09
8.29416e-09
1.01433e-08
9.47205e-09
5.85118e-09
7.17144e-09
8.46425e-09
9.69556e-09
9.61214e-09
6.70494e-09
7.38457e-09
9.55125e-09
9.99053e-09
1.01019e-08
1.16243e-08
1.17709e-08
7.32827e-09
9.44923e-09
1.03927e-08
1.03285e-08
1.20611e-08
1.19592e-08
9.93761e-09
1.23168e-08
1.16009e-08
7.71568e-09
9.89878e-09
1.00629e-08
1.1765e-08
1.16941e-08
9.43444e-09
1.04248e-08
1.40917e-08
1.2269e-08
1.24261e-08
1.45647e-08
1.47902e-08
1.03008e-08
1.39513e-08
1.27179e-08
1.26023e-08
1.50609e-08
1.49091e-08
1.22509e-08
1.53552e-08
1.45784e-08
1.0785e-08
1.44442e-08
1.23327e-08
1.46306e-08
1.45987e-08
1.39721e-08
1.5519e-08
2.18527e-08
1.54672e-08
1.57163e-08
1.87063e-08
1.8997e-08
1.5372e-08
2.15923e-08
1.60001e-08
1.58237e-08
1.93193e-08
1.906e-08
1.54956e-08
1.96658e-08
1.87378e-08
1.58645e-08
2.21031e-08
1.54959e-08
1.87362e-08
1.87011e-08
2.16485e-08
2.40956e-08
3.41953e-08
1.99696e-08
2.02921e-08
2.4414e-08
2.48432e-08
2.3847e-08
3.42145e-08
2.05912e-08
2.03183e-08
2.51166e-08
2.47739e-08
2.00108e-08
2.56101e-08
2.44975e-08
2.43405e-08
3.4335e-08
1.9956e-08
2.44322e-08
2.43836e-08
3.41403e-08
3.76655e-08
5.38547e-08
2.61413e-08
2.65853e-08
3.21838e-08
3.26676e-08
3.76938e-08
5.36796e-08
2.68996e-08
2.65161e-08
3.31292e-08
3.25161e-08
2.62321e-08
3.37082e-08
3.22602e-08
3.77479e-08
5.3463e-08
2.60948e-08
3.21369e-08
3.20479e-08
5.34735e-08
5.89758e-08
8.26731e-08
3.45028e-08
3.50101e-08
4.24821e-08
4.29689e-08
5.88407e-08
8.32891e-08
3.54861e-08
3.48017e-08
4.36031e-08
4.27111e-08
3.45757e-08
4.47438e-08
4.25278e-08
5.84553e-08
8.144e-08
3.43451e-08
4.22792e-08
4.2241e-08
8.21102e-08
8.97762e-08
1.22872e-07
4.55084e-08
4.59402e-08
5.58051e-08
5.60126e-08
9.04019e-08
1.22846e-07
4.67334e-08
4.57267e-08
5.74792e-08
5.58488e-08
4.55274e-08
5.8476e-08
5.56886e-08
8.84224e-08
1.21255e-07
4.52167e-08
5.52827e-08
5.53012e-08
1.21813e-07
1.32494e-07
1.75973e-07
5.96286e-08
5.97675e-08
7.2126e-08
7.24022e-08
1.32181e-07
1.74017e-07
6.15026e-08
5.95619e-08
7.48421e-08
7.19194e-08
5.94854e-08
7.46197e-08
7.21419e-08
1.30539e-07
1.7249e-07
5.90619e-08
7.14819e-08
7.16521e-08
1.74321e-07
1.87549e-07
2.38739e-07
7.66589e-08
7.71242e-08
9.14899e-08
9.28667e-08
1.85477e-07
2.37799e-07
7.96856e-08
7.65154e-08
9.50532e-08
9.16559e-08
7.67666e-08
9.32476e-08
9.17409e-08
1.84201e-07
2.36634e-07
7.62935e-08
9.11494e-08
9.14109e-08
2.38447e-07
2.52316e-07
3.10777e-07
9.69185e-08
9.86127e-08
1.14922e-07
1.17226e-07
2.51828e-07
3.12533e-07
1.00447e-07
9.71692e-08
1.1752e-07
1.15241e-07
9.71605e-08
1.15523e-07
1.14945e-07
2.50265e-07
3.09707e-07
9.68956e-08
1.14398e-07
1.14835e-07
3.11351e-07
3.25998e-07
3.9031e-07
1.21462e-07
1.238e-07
1.42646e-07
1.44724e-07
3.27818e-07
3.88512e-07
1.23518e-07
1.217e-07
1.42809e-07
1.42123e-07
1.21368e-07
1.40932e-07
1.4199e-07
3.25263e-07
3.88747e-07
1.21281e-07
1.41267e-07
1.41942e-07
3.89843e-07
4.0677e-07
4.70576e-07
1.50234e-07
1.5214e-07
1.74357e-07
1.75393e-07
4.04019e-07
4.65598e-07
1.49825e-07
1.49331e-07
1.72639e-07
1.72449e-07
1.4941e-07
1.70898e-07
1.73444e-07
4.04592e-07
4.6685e-07
1.49366e-07
1.72193e-07
1.73325e-07
4.68484e-07
4.86677e-07
5.45652e-07
1.8281e-07
1.83292e-07
2.095e-07
2.07897e-07
4.81445e-07
5.39641e-07
1.80814e-07
1.80671e-07
2.07003e-07
2.06699e-07
1.81932e-07
2.0595e-07
2.08883e-07
4.83004e-07
5.42897e-07
1.81799e-07
2.07104e-07
2.08813e-07
5.44987e-07
5.61013e-07
6.12739e-07
2.18817e-07
2.1662e-07
2.47701e-07
2.44412e-07
5.55136e-07
6.09455e-07
2.16249e-07
2.15841e-07
2.44975e-07
2.44513e-07
2.18358e-07
2.44569e-07
2.47452e-07
5.58387e-07
6.11087e-07
2.183e-07
2.45161e-07
2.47443e-07
6.12268e-07
6.26578e-07
6.68919e-07
2.57614e-07
2.54028e-07
2.88012e-07
2.83618e-07
6.23788e-07
6.67616e-07
2.54756e-07
2.54334e-07
2.84313e-07
2.84267e-07
2.57188e-07
2.84694e-07
2.86183e-07
6.25103e-07
6.6856e-07
2.57285e-07
2.85427e-07
2.86926e-07
6.65607e-07
6.80883e-07
7.15038e-07
2.98295e-07
2.93764e-07
3.29213e-07
3.24997e-07
6.79894e-07
7.15693e-07
2.9427e-07
2.94471e-07
3.24619e-07
3.25862e-07
2.95842e-07
3.2554e-07
3.25561e-07
6.80889e-07
7.16889e-07
2.96829e-07
3.26969e-07
3.26951e-07
7.13874e-07
7.25855e-07
7.55107e-07
3.39414e-07
3.35552e-07
3.68813e-07
3.6622e-07
7.2679e-07
7.56273e-07
3.34909e-07
3.36447e-07
3.65219e-07
3.67021e-07
3.35805e-07
3.66158e-07
3.66322e-07
7.27833e-07
7.56447e-07
3.37179e-07
3.67386e-07
3.67362e-07
7.55813e-07
7.6407e-07
7.80956e-07
3.77986e-07
3.75754e-07
4.04116e-07
4.02677e-07
7.65144e-07
7.81346e-07
3.74784e-07
3.76477e-07
4.01929e-07
4.0314e-07
3.75963e-07
4.0267e-07
4.0318e-07
7.65116e-07
7.81059e-07
3.76862e-07
4.0327e-07
4.03693e-07
7.81918e-07
7.86839e-07
7.97529e-07
4.12782e-07
4.11529e-07
4.40774e-07
4.39953e-07
7.87116e-07
7.9744e-07
4.10873e-07
4.11912e-07
4.39486e-07
4.40141e-07
4.12063e-07
4.39833e-07
4.40354e-07
7.86838e-07
7.97383e-07
4.12476e-07
4.40234e-07
4.40538e-07
7.98057e-07
8.03524e-07
8.21598e-07
4.5132e-07
4.50615e-07
4.88501e-07
4.88075e-07
8.03399e-07
8.21375e-07
4.50203e-07
4.50765e-07
4.87772e-07
4.88199e-07
4.50928e-07
4.87802e-07
4.88174e-07
8.03368e-07
8.21511e-07
4.51057e-07
4.88124e-07
4.88154e-07
8.21715e-07
8.30112e-07
8.62655e-07
5.02915e-07
5.02565e-07
5.50929e-07
5.50781e-07
8.2989e-07
8.62469e-07
5.02297e-07
5.02695e-07
5.50544e-07
5.50905e-07
5.02626e-07
5.50497e-07
5.508e-07
8.30036e-07
8.6269e-07
5.02573e-07
5.50724e-07
5.50667e-07
8.6269e-07
8.7348e-07
9.1188e-07
5.6777e-07
5.67672e-07
6.1688e-07
6.1688e-07
8.73312e-07
9.11762e-07
5.67446e-07
5.67785e-07
6.16656e-07
6.16964e-07
5.67688e-07
6.16607e-07
6.16909e-07
8.73517e-07
9.11958e-07
5.67548e-07
6.16777e-07
6.1675e-07
9.11954e-07
9.22563e-07
9.5771e-07
6.32131e-07
6.32143e-07
6.73334e-07
6.73369e-07
9.22462e-07
9.57612e-07
6.3194e-07
6.32226e-07
6.73186e-07
6.7344e-07
6.32181e-07
6.73133e-07
6.73414e-07
9.2264e-07
9.57778e-07
6.32023e-07
6.7327e-07
6.73269e-07
9.5779e-07
9.67238e-07
9.9356e-07
6.85263e-07
6.85302e-07
7.13894e-07
7.1394e-07
9.67146e-07
9.93468e-07
6.85131e-07
6.85371e-07
7.13779e-07
7.13999e-07
6.85347e-07
7.13719e-07
7.13986e-07
9.67301e-07
9.93613e-07
6.85208e-07
7.13846e-07
7.13858e-07
9.93643e-07
1.00046e-06
1.01328e-06
7.20843e-07
7.20889e-07
7.34921e-07
7.34969e-07
1.00037e-06
1.01319e-06
7.20737e-07
7.20946e-07
7.34822e-07
7.3502e-07
7.20936e-07
7.34757e-07
7.35016e-07
1.00051e-06
1.01333e-06
7.2081e-07
7.34882e-07
7.34895e-07
1.01336e-06
1.01736e-06
1.02133e-06
7.37861e-07
7.37909e-07
7.43361e-07
7.43408e-07
1.01727e-06
1.02124e-06
7.37768e-07
7.37959e-07
7.43267e-07
7.43458e-07
7.37955e-07
7.43208e-07
7.43454e-07
1.0174e-06
1.02137e-06
7.37836e-07
7.43325e-07
7.43338e-07
1.02141e-06
1.02413e-06
1.02447e-06
7.44426e-07
7.44473e-07
7.46312e-07
7.46358e-07
1.02405e-06
1.02439e-06
7.44336e-07
7.44523e-07
7.46218e-07
7.46408e-07
7.44519e-07
7.46166e-07
7.46403e-07
1.02417e-06
1.02452e-06
7.44404e-07
7.46276e-07
7.46291e-07
1.02455e-06
1.02676e-06
1.02552e-06
7.46656e-07
7.46702e-07
7.47255e-07
7.47301e-07
1.02668e-06
1.02544e-06
7.46566e-07
7.46752e-07
7.47162e-07
7.47348e-07
7.46747e-07
7.47109e-07
7.47344e-07
1.0268e-06
1.02556e-06
7.46636e-07
7.47219e-07
7.47235e-07
1.0256e-06
1.02768e-06
1.02584e-06
7.47359e-07
7.47404e-07
7.475e-07
7.47544e-07
1.0276e-06
1.02576e-06
7.47266e-07
7.47451e-07
7.47404e-07
7.4759e-07
7.47447e-07
7.47352e-07
7.47587e-07
1.02772e-06
1.02589e-06
7.47338e-07
7.47461e-07
7.47477e-07
1.02593e-06
1.02795e-06
1.02569e-06
7.47503e-07
7.47547e-07
7.47472e-07
7.47515e-07
1.02787e-06
1.0256e-06
7.47408e-07
7.47593e-07
7.47374e-07
7.47561e-07
7.4759e-07
7.47322e-07
7.47559e-07
1.02799e-06
1.02573e-06
7.4748e-07
7.47432e-07
7.47449e-07
1.02577e-06
1.02772e-06
1.0257e-06
7.47463e-07
7.47505e-07
7.47475e-07
7.47516e-07
1.02764e-06
1.02562e-06
7.47364e-07
7.47551e-07
7.47374e-07
7.47562e-07
7.47549e-07
7.47324e-07
7.4756e-07
1.02776e-06
1.02574e-06
7.47439e-07
7.47433e-07
7.4745e-07
1.02578e-06
1.0278e-06
1.02589e-06
7.47492e-07
7.47532e-07
7.47521e-07
7.47561e-07
1.02772e-06
1.02581e-06
7.47391e-07
7.47578e-07
7.47419e-07
7.47606e-07
7.47576e-07
7.47368e-07
7.47603e-07
1.02784e-06
1.02594e-06
7.47466e-07
7.47476e-07
7.47494e-07
1.02598e-06
1.02794e-06
1.02566e-06
7.4751e-07
7.47549e-07
7.4748e-07
7.47517e-07
1.02787e-06
1.02556e-06
7.47408e-07
7.47594e-07
7.47376e-07
7.47563e-07
7.47591e-07
7.47326e-07
7.47561e-07
1.02798e-06
1.02568e-06
7.47482e-07
7.47433e-07
7.4745e-07
1.02573e-06
1.02772e-06
1.02589e-06
7.47479e-07
7.47516e-07
7.47509e-07
7.47546e-07
1.02764e-06
1.0258e-06
7.47375e-07
7.47562e-07
7.47404e-07
7.47591e-07
7.4756e-07
7.47354e-07
7.47588e-07
1.02776e-06
1.02593e-06
7.4745e-07
7.47463e-07
7.47481e-07
1.02597e-06
1.02795e-06
1.02567e-06
7.47505e-07
7.47541e-07
7.47489e-07
7.47525e-07
1.02787e-06
1.02559e-06
7.47402e-07
7.47587e-07
7.47382e-07
7.4757e-07
7.47584e-07
7.47334e-07
7.47569e-07
1.02799e-06
1.02572e-06
7.47474e-07
7.47442e-07
7.47458e-07
1.02576e-06
1.02773e-06
1.02586e-06
7.47488e-07
7.47524e-07
7.47495e-07
7.47532e-07
1.02766e-06
1.02576e-06
7.47382e-07
7.4757e-07
7.47388e-07
7.47577e-07
7.47569e-07
7.4734e-07
7.47575e-07
1.02778e-06
1.02588e-06
7.47458e-07
7.47448e-07
7.47463e-07
1.02593e-06
1.02789e-06
1.02575e-06
7.47493e-07
7.4753e-07
7.47501e-07
7.47536e-07
1.02779e-06
1.02568e-06
7.47386e-07
7.47575e-07
7.47388e-07
7.47581e-07
7.47574e-07
7.47345e-07
7.4758e-07
1.02791e-06
1.02581e-06
7.47462e-07
7.47454e-07
7.47467e-07
1.02585e-06
1.02785e-06
1.02573e-06
7.475e-07
7.47534e-07
7.47497e-07
7.47529e-07
1.02778e-06
1.02565e-06
7.47387e-07
7.47578e-07
7.47389e-07
7.47577e-07
7.47578e-07
7.47341e-07
7.47575e-07
1.0279e-06
1.02577e-06
7.47464e-07
7.47446e-07
7.47461e-07
1.02581e-06
1.02778e-06
1.02583e-06
7.47497e-07
7.47529e-07
7.47503e-07
7.47535e-07
1.02771e-06
1.02572e-06
7.47388e-07
7.47577e-07
7.4739e-07
7.47578e-07
7.47575e-07
7.47342e-07
7.47576e-07
1.02782e-06
1.02584e-06
7.47461e-07
7.47449e-07
7.47464e-07
1.02588e-06
1.02786e-06
1.02582e-06
7.47498e-07
7.4753e-07
7.47504e-07
7.47537e-07
1.02776e-06
1.02574e-06
7.47388e-07
7.47575e-07
7.47391e-07
7.47583e-07
7.47572e-07
7.47348e-07
7.47582e-07
1.02786e-06
1.02587e-06
7.47459e-07
7.47455e-07
7.47469e-07
1.02592e-06
1.0279e-06
1.02574e-06
7.47502e-07
7.47534e-07
7.47501e-07
7.47535e-07
1.0278e-06
1.02571e-06
7.4739e-07
7.47579e-07
7.47389e-07
7.47581e-07
7.47578e-07
7.47342e-07
7.47576e-07
1.02792e-06
1.02584e-06
7.47465e-07
7.47449e-07
7.47462e-07
1.02586e-06
1.02783e-06
1.02573e-06
7.47501e-07
7.47535e-07
7.47502e-07
7.47534e-07
1.0278e-06
1.02565e-06
7.47389e-07
7.47579e-07
7.4739e-07
7.47581e-07
7.47579e-07
7.47339e-07
7.47574e-07
1.02792e-06
1.02579e-06
7.47464e-07
7.47448e-07
7.47461e-07
1.02581e-06
1.02778e-06
1.02579e-06
7.47502e-07
7.47534e-07
7.47502e-07
7.47533e-07
1.02774e-06
1.02566e-06
7.4739e-07
7.4758e-07
7.47389e-07
7.47577e-07
7.47573e-07
7.47346e-07
7.4758e-07
1.02787e-06
1.02579e-06
7.4746e-07
7.47455e-07
7.47466e-07
1.02583e-06
1.02781e-06
1.02583e-06
7.47501e-07
7.47533e-07
7.47505e-07
7.47535e-07
1.02771e-06
1.02571e-06
7.47389e-07
7.47577e-07
7.47389e-07
7.47578e-07
7.47577e-07
7.47344e-07
7.47578e-07
1.02786e-06
1.02581e-06
7.47464e-07
7.4745e-07
7.47464e-07
1.02587e-06
1.02787e-06
1.02582e-06
7.47502e-07
7.47532e-07
7.47507e-07
7.47536e-07
1.02776e-06
1.02569e-06
7.47387e-07
7.47577e-07
7.47392e-07
7.4758e-07
7.47576e-07
7.47343e-07
7.4758e-07
1.02788e-06
1.02578e-06
7.47462e-07
7.47448e-07
7.47464e-07
1.02592e-06
1.0279e-06
1.02577e-06
7.47505e-07
7.47533e-07
7.47505e-07
7.47538e-07
1.02775e-06
1.02571e-06
7.4739e-07
7.47578e-07
7.4739e-07
7.47581e-07
7.47578e-07
7.47348e-07
7.47579e-07
1.02785e-06
1.02582e-06
7.47463e-07
7.47453e-07
7.47463e-07
1.02582e-06
1.02786e-06
1.0258e-06
7.47505e-07
7.47533e-07
7.47506e-07
7.47535e-07
1.02774e-06
1.02573e-06
7.47391e-07
7.47579e-07
7.47391e-07
7.47579e-07
7.47578e-07
7.47344e-07
7.47579e-07
1.02786e-06
1.02584e-06
7.4746e-07
7.47452e-07
7.47467e-07
1.02592e-06
1.02787e-06
1.02575e-06
7.47504e-07
7.47536e-07
7.475e-07
7.47531e-07
1.02781e-06
1.02566e-06
7.47391e-07
7.47579e-07
7.47386e-07
7.47577e-07
7.47579e-07
7.47341e-07
7.47577e-07
1.0279e-06
1.0258e-06
7.47465e-07
7.47448e-07
7.47461e-07
1.02588e-06
1.02783e-06
1.02583e-06
7.47503e-07
7.47531e-07
7.47505e-07
7.47533e-07
1.02773e-06
1.02571e-06
7.47389e-07
7.47576e-07
7.47392e-07
7.4758e-07
7.47577e-07
7.47343e-07
7.47577e-07
1.02784e-06
1.02587e-06
7.47462e-07
7.4745e-07
7.4746e-07
1.02581e-06
1.02784e-06
1.02585e-06
7.475e-07
7.47532e-07
7.47504e-07
7.47535e-07
1.02777e-06
1.02572e-06
7.47386e-07
7.47578e-07
7.47391e-07
7.4758e-07
7.47576e-07
7.47346e-07
7.47581e-07
1.02789e-06
1.02586e-06
7.47458e-07
7.4745e-07
7.47467e-07
1.02591e-06
1.02795e-06
1.02569e-06
7.47504e-07
7.47535e-07
7.47505e-07
7.47534e-07
1.02782e-06
1.0256e-06
7.47391e-07
7.47579e-07
7.47388e-07
7.47578e-07
7.47578e-07
7.47339e-07
7.47578e-07
1.02792e-06
1.02579e-06
7.47462e-07
7.47446e-07
7.47464e-07
1.02593e-06
1.02779e-06
1.02572e-06
7.47505e-07
7.47534e-07
7.47506e-07
7.47536e-07
1.0277e-06
1.02568e-06
7.47388e-07
7.47577e-07
7.4739e-07
7.4758e-07
7.4758e-07
7.47339e-07
7.47574e-07
1.02784e-06
1.02582e-06
7.47465e-07
7.47449e-07
7.47463e-07
1.02582e-06
1.02775e-06
1.02581e-06
7.47506e-07
7.47536e-07
7.47503e-07
7.47533e-07
1.02771e-06
1.02573e-06
7.4739e-07
7.47579e-07
7.47388e-07
7.47578e-07
7.47576e-07
7.4734e-07
7.47574e-07
1.02784e-06
1.02587e-06
7.47465e-07
7.47443e-07
7.47458e-07
1.02576e-06
1.02782e-06
1.02586e-06
7.47503e-07
7.47533e-07
7.47507e-07
7.47536e-07
1.02776e-06
1.02577e-06
7.47388e-07
7.47579e-07
7.47387e-07
7.47577e-07
7.47574e-07
7.47341e-07
7.47577e-07
1.0279e-06
1.02587e-06
7.47461e-07
7.47442e-07
7.47457e-07
1.02578e-06
1.02789e-06
1.02583e-06
7.47505e-07
7.47535e-07
7.47504e-07
7.47534e-07
1.02781e-06
1.02574e-06
7.47387e-07
7.47578e-07
7.47388e-07
7.47577e-07
7.47576e-07
7.47339e-07
7.47576e-07
1.02794e-06
1.02581e-06
7.47456e-07
7.47443e-07
7.47463e-07
1.02583e-06
1.0279e-06
1.02579e-06
7.47506e-07
7.47538e-07
7.47501e-07
7.47528e-07
1.02783e-06
1.02565e-06
7.47389e-07
7.47577e-07
7.47386e-07
7.47577e-07
7.47577e-07
7.47333e-07
7.47575e-07
1.02789e-06
1.02579e-06
7.47462e-07
7.47438e-07
7.47458e-07
1.02586e-06
1.02788e-06
1.02574e-06
7.47502e-07
7.47528e-07
7.47499e-07
7.47536e-07
1.02772e-06
1.02575e-06
7.47389e-07
7.47577e-07
7.47381e-07
7.47576e-07
7.47577e-07
7.47336e-07
7.47572e-07
1.02784e-06
1.02588e-06
7.47462e-07
7.47438e-07
7.47455e-07
1.02587e-06
1.02783e-06
1.02577e-06
7.47501e-07
7.47536e-07
7.47496e-07
7.4753e-07
1.02779e-06
1.02574e-06
7.47386e-07
7.47578e-07
7.4738e-07
7.47573e-07
7.47576e-07
7.47331e-07
7.47568e-07
1.02791e-06
1.02589e-06
7.47457e-07
7.47438e-07
7.47455e-07
1.02588e-06
1.02781e-06
1.02583e-06
7.47499e-07
7.47535e-07
7.47493e-07
7.47522e-07
1.02784e-06
1.02566e-06
7.47382e-07
7.47577e-07
7.47379e-07
7.47568e-07
7.47571e-07
7.47326e-07
7.47567e-07
1.02796e-06
1.0258e-06
7.47458e-07
7.47429e-07
7.47452e-07
1.02588e-06
1.02788e-06
1.02579e-06
7.47497e-07
7.47528e-07
7.4749e-07
7.4752e-07
1.02777e-06
1.02564e-06
7.47382e-07
7.47574e-07
7.47374e-07
7.47566e-07
7.4757e-07
7.47325e-07
7.47567e-07
1.0279e-06
1.02578e-06
7.47457e-07
7.47429e-07
7.47449e-07
1.02585e-06
1.02788e-06
1.02575e-06
7.47495e-07
7.47523e-07
7.47488e-07
7.47519e-07
1.02772e-06
1.02568e-06
7.47381e-07
7.4757e-07
7.47374e-07
7.47565e-07
7.47571e-07
7.47323e-07
7.47562e-07
1.02786e-06
1.02579e-06
7.47455e-07
7.47428e-07
7.47446e-07
1.02585e-06
1.02782e-06
1.02577e-06
7.47495e-07
7.47524e-07
7.47485e-07
7.47514e-07
1.02774e-06
1.02569e-06
7.4738e-07
7.47571e-07
7.47371e-07
7.47562e-07
7.4757e-07
7.4732e-07
7.47557e-07
1.02785e-06
1.02581e-06
7.47454e-07
7.47427e-07
7.47443e-07
1.02586e-06
1.02783e-06
1.02576e-06
7.47496e-07
7.47525e-07
7.47483e-07
7.47509e-07
1.02776e-06
1.02566e-06
7.47381e-07
7.47572e-07
7.47367e-07
7.47558e-07
7.47568e-07
7.47316e-07
7.47554e-07
1.02786e-06
1.02581e-06
7.47453e-07
7.47421e-07
7.47438e-07
1.02585e-06
1.02781e-06
1.0258e-06
7.47496e-07
7.47523e-07
7.4748e-07
7.47507e-07
1.02774e-06
1.02567e-06
7.47378e-07
7.47569e-07
7.47365e-07
7.47557e-07
7.47567e-07
7.47314e-07
7.47551e-07
1.02786e-06
1.02583e-06
7.47452e-07
7.47418e-07
7.47433e-07
1.02584e-06
1.02785e-06
1.0258e-06
7.47498e-07
7.47524e-07
7.47475e-07
7.47504e-07
1.02774e-06
1.02568e-06
7.47382e-07
7.47573e-07
7.47357e-07
7.47548e-07
7.47568e-07
7.47311e-07
7.47548e-07
1.02787e-06
1.02585e-06
7.47451e-07
7.47418e-07
7.47431e-07
1.02585e-06
1.02788e-06
1.02576e-06
7.47499e-07
7.47527e-07
7.4747e-07
7.47499e-07
1.02774e-06
1.02567e-06
7.47383e-07
7.47572e-07
7.47353e-07
7.47545e-07
7.4757e-07
7.47307e-07
7.47544e-07
1.0279e-06
1.02585e-06
7.47453e-07
7.47413e-07
7.47427e-07
1.02587e-06
1.02785e-06
1.02578e-06
7.475e-07
7.47528e-07
7.47466e-07
7.47496e-07
1.02773e-06
1.02568e-06
7.47382e-07
7.47574e-07
7.4735e-07
7.47541e-07
7.47574e-07
7.47301e-07
7.47538e-07
1.02791e-06
1.02583e-06
7.47457e-07
7.47405e-07
7.47421e-07
1.02586e-06
1.02785e-06
1.02581e-06
7.47504e-07
7.47532e-07
7.47462e-07
7.47491e-07
1.02773e-06
1.02572e-06
7.47388e-07
7.47578e-07
7.47345e-07
7.47536e-07
7.47577e-07
7.47297e-07
7.47532e-07
1.02788e-06
1.02584e-06
7.4746e-07
7.47402e-07
7.47414e-07
1.02584e-06
1.02786e-06
1.02582e-06
7.4751e-07
7.47539e-07
7.47456e-07
7.47483e-07
1.02778e-06
1.02571e-06
7.47394e-07
7.47584e-07
7.47338e-07
7.47529e-07
7.47581e-07
7.47291e-07
7.47527e-07
1.02789e-06
1.02585e-06
7.47464e-07
7.47397e-07
7.47407e-07
1.02585e-06
1.02789e-06
1.02581e-06
7.47517e-07
7.47546e-07
7.47447e-07
7.47474e-07
1.02781e-06
1.02565e-06
7.47401e-07
7.47592e-07
7.4733e-07
7.47519e-07
7.47588e-07
7.47281e-07
7.47518e-07
1.02793e-06
1.02582e-06
7.47469e-07
7.47385e-07
7.47399e-07
1.02585e-06
1.02791e-06
1.02575e-06
7.47528e-07
7.47555e-07
7.47435e-07
7.47463e-07
1.02777e-06
1.02564e-06
7.47411e-07
7.47601e-07
7.47319e-07
7.47509e-07
7.47597e-07
7.47272e-07
7.47508e-07
1.02791e-06
1.0258e-06
7.47478e-07
7.47376e-07
7.47388e-07
1.02583e-06
1.02788e-06
1.02572e-06
7.47537e-07
7.47565e-07
7.47427e-07
7.47454e-07
1.02775e-06
1.02567e-06
7.47422e-07
7.47611e-07
7.47309e-07
7.47501e-07
7.47609e-07
7.47263e-07
7.47497e-07
1.02788e-06
1.02582e-06
7.47489e-07
7.47368e-07
7.47378e-07
1.02582e-06
1.02783e-06
1.02574e-06
7.47554e-07
7.47581e-07
7.47415e-07
7.47445e-07
1.02776e-06
1.02568e-06
7.47439e-07
7.47628e-07
7.47299e-07
7.47492e-07
7.47626e-07
7.47253e-07
7.47488e-07
1.02788e-06
1.02582e-06
7.47506e-07
7.47356e-07
7.47369e-07
1.02584e-06
1.02782e-06
1.02575e-06
7.47583e-07
7.47612e-07
7.47404e-07
7.47431e-07
1.02776e-06
1.02567e-06
7.47465e-07
7.47658e-07
7.47291e-07
7.47483e-07
7.47653e-07
7.47241e-07
7.47476e-07
1.02789e-06
1.02581e-06
7.47534e-07
7.47345e-07
7.47355e-07
1.02585e-06
1.02781e-06
1.02555e-06
7.47615e-07
7.4764e-07
7.4702e-07
7.47045e-07
1.02774e-06
1.02547e-06
7.47499e-07
7.47691e-07
7.46898e-07
7.47087e-07
7.47684e-07
7.46858e-07
7.47087e-07
1.02786e-06
1.02561e-06
7.47562e-07
7.46949e-07
7.46957e-07
1.02561e-06
1.02747e-06
1.00562e-06
7.47358e-07
7.47382e-07
7.25756e-07
7.25778e-07
1.02741e-06
1.00557e-06
7.47235e-07
7.47432e-07
7.25708e-07
7.25745e-07
7.47429e-07
7.25719e-07
7.25798e-07
1.02754e-06
1.00562e-06
7.47294e-07
7.25737e-07
7.25743e-07
1.00565e-06
9.82457e-07
6.97297e-07
6.97317e-07
9.82444e-07
6.9727e-07
6.97282e-07
2.70924e-07
2.70908e-07
2.70933e-07
6.97335e-07
9.82481e-07
6.97307e-07
3.99903e-08
6.21567e-09
2.66062e-08
2.66587e-08
1.57093e-09
4.52718e-09
1.07208e-08
1.54585e-08
1.34608e-09
4.3207e-09
1.53069e-08
2.02506e-08
5.09053e-09
7.48882e-09
3.66697e-09
6.94185e-09
1.67043e-07
5.55929e-09
2.64369e-07
1.56521e-06
3.11708e-06
7.29082e-09
1.67801e-07
5.79926e-09
2.65275e-07
1.51632e-08
1.51032e-08
1.4993e-08
1.49365e-08
1.50304e-08
1.4969e-08
1.48541e-08
1.38798e-09
8.52191e-08
6.99032e-09
5.03878e-09
1.44517e-09
6.36977e-08
6.9227e-09
1.63739e-06
3.20813e-06
1.35844e-09
6.86883e-09
1.3981e-07
4.88931e-09
1.36486e-09
6.79742e-09
1.07363e-07
2.17895e-07
2.1509e-07
4.68505e-09
1.86764e-07
1.83757e-07
1.58101e-08
4.79141e-07
1.13051e-08
6.79842e-07
6.95651e-06
1.00176e-05
1.65476e-08
4.78132e-07
1.14605e-08
6.88306e-07
1.50969e-08
1.50346e-08