/*--------------------------------*- C++ -*----------------------------------*\
| =========                 |                                                 |
| \\      /  F ield         | OpenFOAM: The Open Source CFD Toolbox           |
|  \\    /   O peration     | Version:  v1906                                 |
|   \\  /    A nd           | Web:      www.OpenFOAM.com                      |
|    \\/     M anipulation  |                                                 |
\*---------------------------------------------------------------------------*/
FoamFile
{
    version     2.0;
    format      ascii;
    class       volScalarField;
    location    "175";
    object      k;
}
// * * * * * * * * * * * * * * * * * * * * * * * * * * * * * * * * * * * * * //

dimensions      [0 2 -2 0 0 0 0];


internalField   nonuniform List<scalar> 
171728
(
1.9052e-06
3.93914e-07
3.97295e-07
3.57589e-07
1.90075e-06
3.84914e-07
3.78331e-07
3.37844e-07
1.94655e-06
3.82655e-07
3.76233e-07
3.20061e-07
1.99301e-06
3.83282e-07
3.76263e-07
3.06978e-07
2.04365e-06
3.86307e-07
3.78559e-07
2.94449e-07
2.09694e-06
3.90806e-07
3.83468e-07
2.85957e-07
2.15238e-06
3.9771e-07
3.91311e-07
2.81966e-07
2.20878e-06
4.07369e-07
4.04184e-07
2.77726e-07
2.26561e-06
4.227e-07
4.18689e-07
2.75376e-07
2.32232e-06
4.40621e-07
4.38112e-07
2.7192e-07
2.3783e-06
4.61786e-07
4.62226e-07
2.67547e-07
2.43313e-06
4.89589e-07
4.89715e-07
2.65859e-07
2.48683e-06
5.19421e-07
5.20792e-07
2.68203e-07
2.53883e-06
5.56235e-07
5.56597e-07
2.72889e-07
2.59096e-06
5.97124e-07
5.98948e-07
2.82597e-07
2.64122e-06
6.40934e-07
6.46884e-07
2.98133e-07
2.69121e-06
6.93253e-07
7.07305e-07
3.26334e-07
2.74161e-06
7.56112e-07
7.74632e-07
3.70898e-07
2.79069e-06
8.32007e-07
8.62681e-07
4.40244e-07
2.83852e-06
9.34256e-07
9.66723e-07
5.53581e-07
2.88995e-06
1.06629e-06
1.07369e-06
7.40837e-07
2.94299e-06
1.25734e-06
1.23938e-06
1.04634e-06
2.99705e-06
1.50551e-06
1.4741e-06
1.52358e-06
3.06052e-06
1.84058e-06
1.79408e-06
2.24677e-06
3.12917e-06
2.30461e-06
2.19898e-06
3.31682e-06
3.21035e-06
2.904e-06
2.71326e-06
4.74326e-06
3.30202e-06
3.57516e-06
3.34075e-06
6.61354e-06
3.40909e-06
4.27347e-06
4.10224e-06
8.86237e-06
3.54392e-06
5.1357e-06
5.0209e-06
1.13211e-05
3.69225e-06
6.13236e-06
6.06982e-06
1.38836e-05
3.88122e-06
7.24488e-06
7.28529e-06
1.64112e-05
4.10319e-06
8.58863e-06
8.67818e-06
1.88401e-05
4.39252e-06
1.02014e-05
1.02316e-05
2.12979e-05
4.73842e-06
1.19345e-05
1.19268e-05
2.32707e-05
5.17708e-06
1.37332e-05
1.37833e-05
2.50275e-05
5.70285e-06
1.55752e-05
1.5672e-05
2.67826e-05
6.22196e-06
1.70169e-05
1.70691e-05
2.79801e-05
6.73201e-06
1.80394e-05
1.8064e-05
2.84528e-05
7.32891e-06
1.92882e-05
1.93086e-05
2.89214e-05
8.4922e-06
2.16293e-05
2.16438e-05
3.02839e-05
1.04738e-05
2.4856e-05
2.48652e-05
3.25096e-05
1.30806e-05
2.8201e-05
2.82066e-05
3.4924e-05
1.61059e-05
3.13062e-05
3.13099e-05
3.72621e-05
1.8595e-05
3.33299e-05
3.33335e-05
3.87643e-05
2.00346e-05
3.42932e-05
3.42963e-05
3.9416e-05
2.06729e-05
3.46687e-05
3.46714e-05
3.96788e-05
2.09038e-05
3.4796e-05
3.47984e-05
3.97711e-05
2.09739e-05
3.48349e-05
3.48373e-05
3.98058e-05
2.09863e-05
3.48355e-05
3.48379e-05
3.98097e-05
2.09886e-05
3.48339e-05
3.48363e-05
3.97899e-05
2.09906e-05
3.48396e-05
3.48419e-05
3.98146e-05
2.09895e-05
3.48351e-05
3.48373e-05
3.97965e-05
2.099e-05
3.48381e-05
3.48405e-05
3.98094e-05
2.09898e-05
3.48363e-05
3.48386e-05
3.97964e-05
2.09899e-05
3.48368e-05
3.4839e-05
3.98128e-05
2.099e-05
3.48372e-05
3.48397e-05
3.97934e-05
2.099e-05
3.48367e-05
3.48388e-05
3.98038e-05
2.099e-05
3.48367e-05
3.4839e-05
3.98121e-05
2.09902e-05
3.48377e-05
3.48399e-05
3.98069e-05
2.09902e-05
3.48373e-05
3.48394e-05
3.97953e-05
2.09902e-05
3.48365e-05
3.48389e-05
3.9798e-05
2.09902e-05
3.48373e-05
3.48396e-05
3.98059e-05
2.09902e-05
3.4837e-05
3.48391e-05
3.98119e-05
2.09902e-05
3.48367e-05
3.48388e-05
3.9807e-05
2.09903e-05
3.48377e-05
3.48393e-05
3.98012e-05
2.09903e-05
3.48375e-05
3.48397e-05
3.9811e-05
2.09902e-05
3.48367e-05
3.4839e-05
3.97959e-05
2.09903e-05
3.48369e-05
3.48392e-05
3.97987e-05
2.09903e-05
3.48377e-05
3.48392e-05
3.98132e-05
2.09903e-05
3.4837e-05
3.48389e-05
3.9806e-05
2.09903e-05
3.48369e-05
3.48397e-05
3.97947e-05
2.09902e-05
3.48371e-05
3.4839e-05
3.98003e-05
2.09902e-05
3.48375e-05
3.4839e-05
3.98099e-05
2.09902e-05
3.48377e-05
3.48393e-05
3.98114e-05
2.09901e-05
3.48368e-05
3.48389e-05
3.98075e-05
2.099e-05
3.48375e-05
3.48391e-05
3.98012e-05
2.099e-05
3.48372e-05
3.48394e-05
3.97973e-05
2.099e-05
3.48368e-05
3.48387e-05
3.97959e-05
2.099e-05
3.48367e-05
3.48387e-05
3.97973e-05
2.099e-05
3.48368e-05
3.48388e-05
3.98008e-05
2.099e-05
3.48367e-05
3.4839e-05
3.9802e-05
2.09899e-05
3.48366e-05
3.48388e-05
3.98007e-05
2.09899e-05
3.48367e-05
3.48387e-05
3.98018e-05
2.09899e-05
3.48368e-05
3.4839e-05
3.98057e-05
2.09899e-05
3.48369e-05
3.48392e-05
3.98073e-05
2.09899e-05
3.4837e-05
3.48389e-05
3.98055e-05
2.09899e-05
3.48373e-05
3.48393e-05
3.98042e-05
2.09899e-05
3.48376e-05
3.48398e-05
3.98054e-05
2.09899e-05
3.48377e-05
3.48397e-05
3.98032e-05
2.099e-05
3.48383e-05
3.48402e-05
3.9799e-05
2.099e-05
3.48392e-05
3.48413e-05
3.98005e-05
2.09902e-05
3.48406e-05
3.48426e-05
3.98054e-05
2.09901e-05
3.48425e-05
3.48444e-05
3.9807e-05
2.09736e-05
3.48337e-05
3.48353e-05
3.97965e-05
2.0455e-05
3.35758e-05
3.35754e-05
3.90273e-05
3.55829e-07
3.47734e-07
3.5483e-07
3.71727e-07
3.00998e-07
3.50866e-07
1.95947e-06
1.97118e-06
1.97087e-06
1.9567e-06
3.53562e-07
3.16776e-07
3.61346e-07
3.47998e-07
3.49547e-07
3.60602e-07
3.52617e-07
3.35869e-07
3.93579e-07
3.91934e-07
3.87241e-07
3.88045e-07
3.69131e-07
3.55161e-07
3.39163e-07
3.9672e-07
3.34128e-07
3.89653e-07
4.20768e-07
3.8638e-07
4.07713e-07
3.5871e-07
3.45397e-07
3.95091e-07
3.80269e-07
3.88912e-07
3.41505e-07
3.32382e-07
3.1895e-07
3.86397e-07
3.87738e-07
3.83991e-07
3.86698e-07
3.52186e-07
3.40688e-07
3.33608e-07
3.88425e-07
3.32504e-07
3.85889e-07
4.02515e-07
3.82749e-07
3.86688e-07
3.42427e-07
3.31333e-07
3.87974e-07
3.76451e-07
3.8469e-07
3.23188e-07
3.16093e-07
3.05602e-07
3.83455e-07
3.86484e-07
3.82792e-07
3.86378e-07
3.38137e-07
3.30187e-07
3.32215e-07
3.85339e-07
3.32042e-07
3.85159e-07
3.80586e-07
3.83006e-07
3.59469e-07
3.28726e-07
3.2034e-07
3.84209e-07
3.76192e-07
3.83643e-07
3.0959e-07
3.02932e-07
2.93569e-07
3.82836e-07
3.86459e-07
3.83641e-07
3.8737e-07
3.28151e-07
3.21926e-07
3.32126e-07
3.85284e-07
3.33206e-07
3.86816e-07
3.53167e-07
3.85615e-07
3.41237e-07
3.18241e-07
3.1287e-07
3.83672e-07
3.77908e-07
3.84336e-07
2.97177e-07
2.9107e-07
2.84925e-07
3.84309e-07
3.87779e-07
3.8767e-07
3.89291e-07
3.19935e-07
3.14384e-07
3.34212e-07
3.87703e-07
3.40173e-07
3.91428e-07
3.39926e-07
3.89925e-07
3.39975e-07
3.11179e-07
3.0762e-07
3.84642e-07
3.82201e-07
3.86748e-07
2.8756e-07
2.83073e-07
2.7899e-07
3.89384e-07
3.9017e-07
3.9421e-07
3.95089e-07
3.12526e-07
3.08626e-07
3.42743e-07
3.93033e-07
3.51731e-07
3.99213e-07
3.41515e-07
3.95807e-07
3.49697e-07
3.06125e-07
3.03287e-07
3.88382e-07
3.89341e-07
3.94669e-07
2.8335e-07
2.77446e-07
2.74486e-07
3.95907e-07
3.9769e-07
4.02427e-07
4.0593e-07
3.07049e-07
3.04056e-07
3.54536e-07
4.01641e-07
3.63042e-07
4.10434e-07
3.52791e-07
4.04965e-07
3.6341e-07
3.01886e-07
2.99653e-07
3.96983e-07
4.01032e-07
4.05673e-07
2.79021e-07
2.73031e-07
2.70989e-07
4.04815e-07
4.08558e-07
4.14202e-07
4.18675e-07
3.02694e-07
3.00369e-07
3.66353e-07
4.13895e-07
3.78281e-07
4.24136e-07
3.66932e-07
4.19357e-07
3.78888e-07
2.98306e-07
2.96892e-07
4.08626e-07
4.15132e-07
4.17681e-07
2.76447e-07
2.69912e-07
2.69355e-07
4.17402e-07
4.22151e-07
4.30657e-07
4.35223e-07
2.98994e-07
2.96133e-07
3.82392e-07
4.28078e-07
3.98074e-07
4.43319e-07
3.82996e-07
4.36253e-07
3.96955e-07
2.95887e-07
2.94534e-07
4.21248e-07
4.33106e-07
4.33963e-07
2.73385e-07
2.6846e-07
2.6826e-07
4.35885e-07
4.3961e-07
4.52294e-07
4.5587e-07
2.94713e-07
2.92494e-07
4.03808e-07
4.48237e-07
4.22388e-07
4.64183e-07
4.01748e-07
4.56267e-07
4.17966e-07
2.9326e-07
2.91786e-07
4.38468e-07
4.56056e-07
4.54737e-07
2.68913e-07
2.6738e-07
2.6818e-07
4.58443e-07
4.61679e-07
4.76995e-07
4.78185e-07
2.91277e-07
2.90032e-07
4.29341e-07
4.69318e-07
4.52289e-07
4.87038e-07
4.24209e-07
4.82198e-07
4.42842e-07
2.90803e-07
2.9108e-07
4.6078e-07
4.82817e-07
4.7949e-07
2.66733e-07
2.67464e-07
2.70372e-07
4.83413e-07
4.84311e-07
5.05484e-07
5.00016e-07
2.89004e-07
2.8935e-07
4.60192e-07
4.94516e-07
4.84424e-07
5.17811e-07
4.49979e-07
5.12096e-07
4.7086e-07
2.90311e-07
2.93564e-07
4.86804e-07
5.12838e-07
5.10133e-07
2.68707e-07
2.69829e-07
2.75373e-07
5.12865e-07
5.05484e-07
5.36842e-07
5.25559e-07
2.88586e-07
2.93078e-07
4.93427e-07
5.26316e-07
5.19443e-07
5.54283e-07
4.78354e-07
5.46864e-07
5.0343e-07
2.93063e-07
2.99917e-07
5.18158e-07
5.47639e-07
5.4375e-07
2.73248e-07
2.75078e-07
2.85194e-07
5.45515e-07
5.32952e-07
5.73493e-07
5.59153e-07
2.92775e-07
3.01123e-07
5.27645e-07
5.63795e-07
5.59544e-07
5.96488e-07
5.11647e-07
5.87221e-07
5.41133e-07
2.99739e-07
3.11867e-07
5.52481e-07
5.88348e-07
5.81218e-07
2.8162e-07
2.86272e-07
3.0092e-07
5.83236e-07
5.68624e-07
6.16343e-07
6.01287e-07
3.02038e-07
3.1527e-07
5.7096e-07
6.08056e-07
6.05401e-07
6.45489e-07
5.51942e-07
6.30169e-07
5.85117e-07
3.13642e-07
3.32319e-07
5.91646e-07
6.3387e-07
6.25222e-07
2.95615e-07
3.04049e-07
3.26839e-07
6.28336e-07
6.13325e-07
6.66038e-07
6.52215e-07
3.18124e-07
3.40371e-07
6.18516e-07
6.59805e-07
6.61984e-07
7.04279e-07
5.97879e-07
6.79309e-07
6.39912e-07
3.36116e-07
3.64758e-07
6.3792e-07
6.92423e-07
6.80279e-07
3.20768e-07
3.32328e-07
3.67389e-07
6.80676e-07
6.67284e-07
7.30278e-07
7.18033e-07
3.45562e-07
3.77423e-07
6.77774e-07
7.19668e-07
7.30919e-07
7.70514e-07
6.55059e-07
7.39422e-07
7.05673e-07
3.71635e-07
4.11485e-07
6.95433e-07
7.56856e-07
7.44971e-07
3.60809e-07
3.77151e-07
4.28573e-07
7.47623e-07
7.35844e-07
8.04426e-07
7.93273e-07
3.86168e-07
4.30776e-07
7.50923e-07
7.88795e-07
8.07888e-07
8.45997e-07
7.25184e-07
8.11648e-07
7.87004e-07
4.22052e-07
4.76678e-07
7.64074e-07
8.37459e-07
8.25055e-07
4.24337e-07
4.44947e-07
5.30474e-07
8.27538e-07
8.16928e-07
9.01568e-07
8.95395e-07
4.44875e-07
5.22292e-07
8.30251e-07
8.68406e-07
9.05485e-07
9.38288e-07
8.10672e-07
9.07033e-07
8.89769e-07
4.93386e-07
5.7588e-07
8.47964e-07
9.419e-07
9.21012e-07
5.25413e-07
5.57383e-07
6.98535e-07
9.28568e-07
9.23397e-07
1.02511e-06
1.02305e-06
5.4768e-07
6.82753e-07
9.31731e-07
9.64967e-07
1.02734e-06
1.05946e-06
9.18702e-07
1.03159e-06
1.02037e-06
6.03137e-07
7.44703e-07
9.47347e-07
1.04672e-06
1.03847e-06
6.95939e-07
7.42288e-07
9.80743e-07
1.05946e-06
1.0604e-06
1.18386e-06
1.1922e-06
7.28368e-07
9.59245e-07
1.06339e-06
1.09325e-06
1.19544e-06
1.22136e-06
1.0581e-06
1.20107e-06
1.1866e-06
7.88098e-07
1.01853e-06
1.07219e-06
1.1905e-06
1.19355e-06
9.75667e-07
1.05471e-06
1.40655e-06
1.23421e-06
1.24519e-06
1.40232e-06
1.42345e-06
1.03128e-06
1.4036e-06
1.24599e-06
1.2714e-06
1.40893e-06
1.43614e-06
1.23741e-06
1.43839e-06
1.41058e-06
1.09056e-06
1.44187e-06
1.2423e-06
1.40721e-06
1.4096e-06
1.41191e-06
1.51436e-06
2.09049e-06
1.46744e-06
1.4914e-06
1.69912e-06
1.72175e-06
1.5156e-06
2.08331e-06
1.47529e-06
1.50262e-06
1.72015e-06
1.73465e-06
1.47724e-06
1.74576e-06
1.70728e-06
1.54985e-06
2.10048e-06
1.47464e-06
1.70738e-06
1.70099e-06
2.0823e-06
2.26019e-06
3.09185e-06
1.78656e-06
1.80954e-06
2.08223e-06
2.11267e-06
2.24441e-06
3.1185e-06
1.80946e-06
1.82298e-06
2.10406e-06
2.11637e-06
1.79346e-06
2.17748e-06
2.09091e-06
2.26333e-06
3.07501e-06
1.78693e-06
2.08799e-06
2.08226e-06
3.08492e-06
3.32714e-06
4.4611e-06
2.19448e-06
2.2258e-06
2.57682e-06
2.60016e-06
3.36616e-06
4.52084e-06
2.21915e-06
2.22558e-06
2.61334e-06
2.60519e-06
2.20528e-06
2.7444e-06
2.57958e-06
3.29541e-06
4.42475e-06
2.19511e-06
2.57666e-06
2.56845e-06
4.43712e-06
4.76722e-06
6.3126e-06
2.72298e-06
2.73654e-06
3.20571e-06
3.18294e-06
4.83123e-06
6.2855e-06
2.75995e-06
2.74779e-06
3.25962e-06
3.20333e-06
2.71808e-06
3.40295e-06
3.19122e-06
4.73972e-06
6.18164e-06
2.70559e-06
3.16799e-06
3.16675e-06
6.23071e-06
6.70394e-06
8.47591e-06
3.38298e-06
3.35217e-06
3.93869e-06
3.92326e-06
6.64194e-06
8.35991e-06
3.45646e-06
3.37096e-06
4.10595e-06
3.92107e-06
3.36805e-06
4.09115e-06
3.93079e-06
6.55077e-06
8.34743e-06
3.34108e-06
3.9023e-06
3.90446e-06
8.41402e-06
8.91782e-06
1.08351e-05
4.13034e-06
4.1357e-06
4.77651e-06
4.84853e-06
8.81026e-06
1.08703e-05
4.33134e-06
4.1203e-06
5.03554e-06
4.79865e-06
4.13178e-06
4.90496e-06
4.79422e-06
8.79405e-06
1.07401e-05
4.10693e-06
4.77656e-06
4.78177e-06
1.08331e-05
1.13035e-05
1.33296e-05
5.01799e-06
5.10503e-06
5.81206e-06
5.9124e-06
1.13825e-05
1.34374e-05
5.27135e-06
5.05023e-06
5.97238e-06
5.84708e-06
5.038e-06
5.87373e-06
5.80606e-06
1.12355e-05
1.33625e-05
5.02903e-06
5.79606e-06
5.79928e-06
1.33842e-05
1.38484e-05
1.59826e-05
6.10412e-06
6.2077e-06
7.05389e-06
7.20705e-06
1.3918e-05
1.58877e-05
6.22233e-06
6.12615e-06
7.05724e-06
7.01562e-06
6.07832e-06
6.95163e-06
6.99766e-06
1.38647e-05
1.58461e-05
6.07364e-06
6.96028e-06
6.99563e-06
1.59034e-05
1.64967e-05
1.84348e-05
7.38477e-06
7.55202e-06
8.41733e-06
8.51829e-06
1.63905e-05
1.82481e-05
7.35774e-06
7.33348e-06
8.32011e-06
8.32626e-06
7.32528e-06
8.22526e-06
8.33398e-06
1.63482e-05
1.83244e-05
7.32064e-06
8.32077e-06
8.33331e-06
1.83369e-05
1.89302e-05
2.07744e-05
8.78394e-06
8.83446e-06
9.94157e-06
9.88656e-06
1.87176e-05
2.05835e-05
8.67085e-06
8.67182e-06
9.8288e-06
9.81146e-06
8.69652e-06
9.78029e-06
9.9037e-06
1.8823e-05
2.06781e-05
8.7007e-06
9.82445e-06
9.89794e-06
2.08128e-05
2.12459e-05
2.2893e-05
1.03421e-05
1.02706e-05
1.15882e-05
1.1467e-05
2.10821e-05
2.28051e-05
1.0243e-05
1.02227e-05
1.15171e-05
1.14787e-05
1.0339e-05
1.1498e-05
1.16692e-05
2.11589e-05
2.2824e-05
1.03215e-05
1.14945e-05
1.16314e-05
2.2864e-05
2.33238e-05
2.47296e-05
1.2024e-05
1.18792e-05
1.34148e-05
1.31902e-05
2.32391e-05
2.46691e-05
1.19464e-05
1.19004e-05
1.32591e-05
1.32269e-05
1.2098e-05
1.32738e-05
1.33477e-05
2.32538e-05
2.47148e-05
1.20681e-05
1.33006e-05
1.33758e-05
2.46387e-05
2.51156e-05
2.64312e-05
1.38994e-05
1.36585e-05
1.53366e-05
1.51081e-05
2.5067e-05
2.64358e-05
1.37116e-05
1.37002e-05
1.51003e-05
1.51584e-05
1.37777e-05
1.51347e-05
1.51428e-05
2.51229e-05
2.64939e-05
1.38253e-05
1.52309e-05
1.52173e-05
2.63981e-05
2.68022e-05
2.77281e-05
1.57719e-05
1.55616e-05
1.68489e-05
1.67021e-05
2.68133e-05
2.77379e-05
1.55394e-05
1.56107e-05
1.66624e-05
1.67395e-05
1.55854e-05
1.67058e-05
1.67279e-05
2.68621e-05
2.77451e-05
1.56593e-05
1.6771e-05
1.67852e-05
2.77567e-05
2.79481e-05
2.8289e-05
1.71395e-05
1.70113e-05
1.78769e-05
1.77911e-05
2.79566e-05
2.82862e-05
1.69729e-05
1.70443e-05
1.77623e-05
1.78098e-05
1.70429e-05
1.78011e-05
1.78303e-05
2.79584e-05
2.82833e-05
1.70929e-05
1.78288e-05
1.78614e-05
2.83213e-05
2.84233e-05
2.87213e-05
1.8107e-05
1.80321e-05
1.89504e-05
1.89009e-05
2.84187e-05
2.87107e-05
1.80067e-05
1.80462e-05
1.88844e-05
1.89078e-05
1.80679e-05
1.8899e-05
1.89185e-05
2.84159e-05
2.87139e-05
1.80943e-05
1.89202e-05
1.89322e-05
2.87331e-05
2.89139e-05
2.99098e-05
1.93356e-05
1.92927e-05
2.0959e-05
2.09336e-05
2.89029e-05
2.98991e-05
1.92792e-05
1.92997e-05
2.09258e-05
2.09426e-05
1.93053e-05
2.09277e-05
2.09381e-05
2.89069e-05
2.99087e-05
1.93153e-05
2.09438e-05
2.09394e-05
2.99075e-05
3.02865e-05
3.20501e-05
2.16563e-05
2.16362e-05
2.40395e-05
2.40312e-05
3.0277e-05
3.20451e-05
2.16292e-05
2.16449e-05
2.40243e-05
2.40375e-05
2.16392e-05
2.40239e-05
2.40328e-05
3.02862e-05
3.20525e-05
2.16388e-05
2.40341e-05
2.40291e-05
3.205e-05
3.25093e-05
3.44581e-05
2.48694e-05
2.48635e-05
2.73695e-05
2.73675e-05
3.25053e-05
3.44554e-05
2.48571e-05
2.48691e-05
2.73623e-05
2.73713e-05
2.48654e-05
2.73618e-05
2.73705e-05
3.2512e-05
3.44604e-05
2.4861e-05
2.73682e-05
2.73656e-05
3.44597e-05
3.49226e-05
3.68552e-05
2.82076e-05
2.82063e-05
3.06083e-05
3.0608e-05
3.49201e-05
3.68532e-05
2.82018e-05
2.82097e-05
3.06046e-05
3.06106e-05
2.82093e-05
3.06044e-05
3.06111e-05
3.49246e-05
3.68563e-05
2.82048e-05
3.06083e-05
3.06078e-05
3.68569e-05
3.72605e-05
3.85338e-05
3.13098e-05
3.13096e-05
3.2944e-05
3.29438e-05
3.72587e-05
3.85318e-05
3.13067e-05
3.13119e-05
3.29419e-05
3.29455e-05
3.13129e-05
3.29412e-05
3.29476e-05
3.72614e-05
3.85345e-05
3.13097e-05
3.29449e-05
3.2945e-05
3.85361e-05
3.87621e-05
3.92963e-05
3.33324e-05
3.33322e-05
3.41263e-05
3.41262e-05
3.87602e-05
3.92946e-05
3.33307e-05
3.33338e-05
3.41249e-05
3.41273e-05
3.33361e-05
3.41244e-05
3.413e-05
3.87627e-05
3.9297e-05
3.33336e-05
3.41277e-05
3.41279e-05
3.92986e-05
3.94136e-05
3.96121e-05
3.42948e-05
3.42946e-05
3.46094e-05
3.46092e-05
3.9412e-05
3.96107e-05
3.42936e-05
3.42957e-05
3.46082e-05
3.46103e-05
3.42985e-05
3.46082e-05
3.4613e-05
3.94142e-05
3.96127e-05
3.42965e-05
3.46109e-05
3.46113e-05
3.96145e-05
3.96763e-05
3.97253e-05
3.46696e-05
3.46694e-05
3.47764e-05
3.47762e-05
3.9675e-05
3.9724e-05
3.46686e-05
3.46705e-05
3.47754e-05
3.47772e-05
3.46733e-05
3.47756e-05
3.478e-05
3.96769e-05
3.97258e-05
3.46716e-05
3.47781e-05
3.47785e-05
3.97276e-05
3.97687e-05
3.97663e-05
3.47967e-05
3.47965e-05
3.48313e-05
3.4831e-05
3.97674e-05
3.97649e-05
3.47957e-05
3.47974e-05
3.48302e-05
3.48318e-05
3.48001e-05
3.48304e-05
3.48346e-05
3.97691e-05
3.97666e-05
3.47987e-05
3.48328e-05
3.48332e-05
3.97684e-05
3.98036e-05
3.97761e-05
3.48358e-05
3.48355e-05
3.48379e-05
3.48376e-05
3.98023e-05
3.97748e-05
3.48347e-05
3.48363e-05
3.48367e-05
3.48384e-05
3.48391e-05
3.48369e-05
3.48412e-05
3.98038e-05
3.97765e-05
3.48377e-05
3.48393e-05
3.48398e-05
3.97783e-05
3.98073e-05
3.97528e-05
3.48364e-05
3.48361e-05
3.48347e-05
3.48344e-05
3.98061e-05
3.97514e-05
3.48352e-05
3.48369e-05
3.48335e-05
3.48352e-05
3.48397e-05
3.48336e-05
3.4838e-05
3.98077e-05
3.97533e-05
3.48382e-05
3.48361e-05
3.48365e-05
3.97551e-05
3.97877e-05
3.97758e-05
3.48349e-05
3.48346e-05
3.48402e-05
3.48399e-05
3.97863e-05
3.97744e-05
3.48337e-05
3.48353e-05
3.48388e-05
3.48406e-05
3.48381e-05
3.48392e-05
3.48434e-05
3.9788e-05
3.97761e-05
3.48367e-05
3.48415e-05
3.48419e-05
3.9778e-05
3.9812e-05
3.97652e-05
3.48406e-05
3.48403e-05
3.48372e-05
3.48367e-05
3.98109e-05
3.97628e-05
3.48393e-05
3.4841e-05
3.48358e-05
3.48373e-05
3.48437e-05
3.4836e-05
3.48401e-05
3.98125e-05
3.9764e-05
3.48423e-05
3.48382e-05
3.48385e-05
3.97656e-05
3.9796e-05
3.97662e-05
3.48362e-05
3.48357e-05
3.48384e-05
3.48381e-05
3.97937e-05
3.97662e-05
3.48347e-05
3.48364e-05
3.48369e-05
3.48387e-05
3.48392e-05
3.48373e-05
3.48415e-05
3.97947e-05
3.97685e-05
3.48376e-05
3.48398e-05
3.48404e-05
3.97706e-05
3.98058e-05
3.97649e-05
3.48393e-05
3.48389e-05
3.48375e-05
3.48369e-05
3.98053e-05
3.97624e-05
3.48379e-05
3.48395e-05
3.4836e-05
3.48377e-05
3.48422e-05
3.48363e-05
3.48405e-05
3.98071e-05
3.97639e-05
3.4841e-05
3.48387e-05
3.48391e-05
3.97656e-05
3.97954e-05
3.97724e-05
3.48374e-05
3.48368e-05
3.48381e-05
3.48378e-05
3.97931e-05
3.97721e-05
3.48358e-05
3.48375e-05
3.48365e-05
3.48383e-05
3.48404e-05
3.48369e-05
3.48411e-05
3.97945e-05
3.9774e-05
3.48389e-05
3.48391e-05
3.48393e-05
3.97756e-05
3.98098e-05
3.97573e-05
3.48379e-05
3.48375e-05
3.48381e-05
3.48377e-05
3.98093e-05
3.97554e-05
3.48364e-05
3.48381e-05
3.48364e-05
3.48382e-05
3.48409e-05
3.48369e-05
3.48411e-05
3.9811e-05
3.9757e-05
3.48393e-05
3.48394e-05
3.48397e-05
3.97589e-05
3.97904e-05
3.97754e-05
3.48384e-05
3.4838e-05
3.48379e-05
3.48372e-05
3.97897e-05
3.97717e-05
3.48364e-05
3.48383e-05
3.48364e-05
3.48379e-05
3.48414e-05
3.48367e-05
3.48408e-05
3.97917e-05
3.97715e-05
3.48398e-05
3.48387e-05
3.4839e-05
3.97744e-05
3.98053e-05
3.97715e-05
3.48378e-05
3.48371e-05
3.48388e-05
3.48382e-05
3.9801e-05
3.97721e-05
3.48364e-05
3.48379e-05
3.48366e-05
3.48385e-05
3.48408e-05
3.48373e-05
3.48415e-05
3.98008e-05
3.97746e-05
3.48391e-05
3.48397e-05
3.48401e-05
3.97761e-05
3.98091e-05
3.97592e-05
3.48383e-05
3.48375e-05
3.48383e-05
3.4838e-05
3.98084e-05
3.97632e-05
3.48363e-05
3.48379e-05
3.48365e-05
3.48386e-05
3.48408e-05
3.48375e-05
3.48416e-05
3.98098e-05
3.9767e-05
3.48393e-05
3.48397e-05
3.484e-05
3.97659e-05
3.97993e-05
3.97608e-05
3.48386e-05
3.4838e-05
3.48381e-05
3.48375e-05
3.98038e-05
3.97572e-05
3.48367e-05
3.48385e-05
3.48364e-05
3.48382e-05
3.48417e-05
3.48365e-05
3.48405e-05
3.98067e-05
3.97596e-05
3.48402e-05
3.48387e-05
3.48389e-05
3.97604e-05
3.97926e-05
3.9772e-05
3.48381e-05
3.48379e-05
3.48382e-05
3.48375e-05
3.97944e-05
3.97607e-05
3.48364e-05
3.48383e-05
3.48365e-05
3.48381e-05
3.48411e-05
3.48366e-05
3.48408e-05
3.97986e-05
3.97609e-05
3.48394e-05
3.4839e-05
3.48393e-05
3.97676e-05
3.98013e-05
3.97748e-05
3.48382e-05
3.48376e-05
3.48383e-05
3.48376e-05
3.97922e-05
3.97703e-05
3.48365e-05
3.48384e-05
3.48364e-05
3.48379e-05
3.48405e-05
3.48375e-05
3.48414e-05
3.97937e-05
3.97656e-05
3.4839e-05
3.48396e-05
3.48397e-05
3.97756e-05
3.98091e-05
3.97693e-05
3.48381e-05
3.48375e-05
3.48386e-05
3.48379e-05
3.97998e-05
3.97729e-05
3.48364e-05
3.4838e-05
3.48366e-05
3.48382e-05
3.48411e-05
3.4837e-05
3.48412e-05
3.97964e-05
3.97671e-05
3.48394e-05
3.48389e-05
3.48396e-05
3.97773e-05
3.98076e-05
3.97619e-05
3.48383e-05
3.48375e-05
3.48386e-05
3.48381e-05
3.9806e-05
3.97718e-05
3.48363e-05
3.48379e-05
3.48367e-05
3.48385e-05
3.48409e-05
3.48372e-05
3.48413e-05
3.97972e-05
3.97695e-05
3.48394e-05
3.48392e-05
3.48395e-05
3.97673e-05
3.98022e-05
3.97607e-05
3.48386e-05
3.48376e-05
3.48383e-05
3.48383e-05
3.98062e-05
3.97721e-05
3.48367e-05
3.4838e-05
3.48364e-05
3.48385e-05
3.48412e-05
3.48378e-05
3.48412e-05
3.97987e-05
3.97758e-05
3.48396e-05
3.48398e-05
3.48398e-05
3.97659e-05
3.97974e-05
3.97611e-05
3.48385e-05
3.48382e-05
3.48386e-05
3.48375e-05
3.98093e-05
3.9758e-05
3.48367e-05
3.48384e-05
3.48365e-05
3.4838e-05
3.48412e-05
3.48366e-05
3.4841e-05
3.98081e-05
3.97703e-05
3.48394e-05
3.48393e-05
3.48398e-05
3.97707e-05
3.97994e-05
3.97583e-05
3.4839e-05
3.48382e-05
3.48376e-05
3.48373e-05
3.9799e-05
3.97611e-05
3.48369e-05
3.48382e-05
3.48358e-05
3.48381e-05
3.48414e-05
3.48367e-05
3.48409e-05
3.98069e-05
3.97717e-05
3.48402e-05
3.48389e-05
3.4839e-05
3.9759e-05
3.97902e-05
3.97782e-05
3.48378e-05
3.48374e-05
3.48391e-05
3.4838e-05
3.97924e-05
3.97729e-05
3.48359e-05
3.48379e-05
3.48373e-05
3.48384e-05
3.48409e-05
3.48375e-05
3.48413e-05
3.98067e-05
3.97727e-05
3.48393e-05
3.48394e-05
3.48395e-05
3.97688e-05
3.98107e-05
3.97605e-05
3.48383e-05
3.48375e-05
3.48383e-05
3.48379e-05
3.98057e-05
3.97606e-05
3.48364e-05
3.48381e-05
3.48364e-05
3.48383e-05
3.48408e-05
3.48375e-05
3.48416e-05
3.98088e-05
3.97661e-05
3.48389e-05
3.48391e-05
3.48401e-05
3.97782e-05
3.9801e-05
3.97628e-05
3.48385e-05
3.4838e-05
3.48384e-05
3.48377e-05
3.97986e-05
3.97594e-05
3.48367e-05
3.48382e-05
3.48364e-05
3.48384e-05
3.48415e-05
3.48366e-05
3.48409e-05
3.98028e-05
3.97736e-05
3.48398e-05
3.48394e-05
3.48394e-05
3.97651e-05
3.97939e-05
3.97751e-05
3.48384e-05
3.48377e-05
3.48385e-05
3.48378e-05
3.97912e-05
3.97742e-05
3.48362e-05
3.48381e-05
3.48367e-05
3.48386e-05
3.48415e-05
3.48371e-05
3.48407e-05
3.98043e-05
3.97754e-05
3.48397e-05
3.48397e-05
3.48394e-05
3.97615e-05
3.9806e-05
3.9773e-05
3.48385e-05
3.48379e-05
3.48384e-05
3.48377e-05
3.98058e-05
3.97694e-05
3.48367e-05
3.48385e-05
3.48364e-05
3.4838e-05
3.48408e-05
3.48373e-05
3.48412e-05
3.98101e-05
3.97681e-05
3.48397e-05
3.48387e-05
3.4839e-05
3.97706e-05
3.98092e-05
3.97671e-05
3.48383e-05
3.48377e-05
3.48388e-05
3.48382e-05
3.98069e-05
3.97635e-05
3.48365e-05
3.48384e-05
3.48366e-05
3.4838e-05
3.48408e-05
3.48374e-05
3.48415e-05
3.98073e-05
3.976e-05
3.48391e-05
3.48389e-05
3.48396e-05
3.97775e-05
3.98067e-05
3.976e-05
3.48388e-05
3.48382e-05
3.48382e-05
3.48376e-05
3.98044e-05
3.97561e-05
3.48365e-05
3.48382e-05
3.48366e-05
3.4838e-05
3.48412e-05
3.48369e-05
3.48413e-05
3.98003e-05
3.97597e-05
3.48389e-05
3.4839e-05
3.48399e-05
3.97743e-05
3.97998e-05
3.97599e-05
3.48386e-05
3.48381e-05
3.48384e-05
3.48378e-05
3.97927e-05
3.97649e-05
3.48368e-05
3.4838e-05
3.48364e-05
3.48385e-05
3.48414e-05
3.48368e-05
3.48411e-05
3.97919e-05
3.9773e-05
3.48398e-05
3.48387e-05
3.4839e-05
3.97666e-05
3.97942e-05
3.97625e-05
3.48383e-05
3.48372e-05
3.48382e-05
3.48387e-05
3.97948e-05
3.97747e-05
3.48368e-05
3.48382e-05
3.48359e-05
3.48383e-05
3.48415e-05
3.48374e-05
3.48407e-05
3.98023e-05
3.97735e-05
3.48396e-05
3.48394e-05
3.4839e-05
3.97618e-05
3.97935e-05
3.97751e-05
3.48382e-05
3.48386e-05
3.48381e-05
3.48375e-05
3.98102e-05
3.97598e-05
3.48363e-05
3.48386e-05
3.48365e-05
3.4838e-05
3.48412e-05
3.48367e-05
3.48408e-05
3.98097e-05
3.97623e-05
3.48391e-05
3.48388e-05
3.48391e-05
3.97618e-05
3.98048e-05
3.97723e-05
3.48381e-05
3.48384e-05
3.4838e-05
3.48372e-05
3.98007e-05
3.97587e-05
3.48363e-05
3.48384e-05
3.48363e-05
3.48378e-05
3.48409e-05
3.48365e-05
3.48407e-05
3.98022e-05
3.97606e-05
3.48392e-05
3.48383e-05
3.4839e-05
3.9763e-05
3.98098e-05
3.97575e-05
3.48382e-05
3.48375e-05
3.48378e-05
3.48376e-05
3.97916e-05
3.97654e-05
3.48364e-05
3.48381e-05
3.48359e-05
3.48379e-05
3.48408e-05
3.48365e-05
3.48408e-05
3.97941e-05
3.97673e-05
3.48392e-05
3.48385e-05
3.48389e-05
3.97662e-05
3.9796e-05
3.97634e-05
3.4838e-05
3.48375e-05
3.48379e-05
3.48374e-05
3.97956e-05
3.977e-05
3.48362e-05
3.48379e-05
3.48361e-05
3.4838e-05
3.4841e-05
3.48365e-05
3.48406e-05
3.97977e-05
3.97697e-05
3.48391e-05
3.48386e-05
3.48388e-05
3.97707e-05
3.97944e-05
3.97722e-05
3.48381e-05
3.48376e-05
3.48377e-05
3.4837e-05
3.97998e-05
3.97701e-05
3.48363e-05
3.48381e-05
3.4836e-05
3.48377e-05
3.4841e-05
3.48363e-05
3.48404e-05
3.97993e-05
3.97718e-05
3.48391e-05
3.48384e-05
3.48388e-05
3.9772e-05
3.98016e-05
3.97751e-05
3.48381e-05
3.48375e-05
3.48378e-05
3.48369e-05
3.98002e-05
3.97713e-05
3.48363e-05
3.4838e-05
3.48362e-05
3.48378e-05
3.48407e-05
3.48362e-05
3.48403e-05
3.98014e-05
3.97739e-05
3.48391e-05
3.48382e-05
3.48385e-05
3.97707e-05
3.9808e-05
3.97713e-05
3.48382e-05
3.48373e-05
3.48377e-05
3.4837e-05
3.98016e-05
3.97722e-05
3.48363e-05
3.48379e-05
3.4836e-05
3.48377e-05
3.48406e-05
3.48362e-05
3.48403e-05
3.98049e-05
3.9774e-05
3.4839e-05
3.48381e-05
3.48384e-05
3.97721e-05
3.98088e-05
3.97613e-05
3.48384e-05
3.48374e-05
3.48374e-05
3.48368e-05
3.98046e-05
3.97712e-05
3.48366e-05
3.48383e-05
3.48353e-05
3.48372e-05
3.48407e-05
3.4836e-05
3.48402e-05
3.98083e-05
3.97703e-05
3.48388e-05
3.48382e-05
3.48385e-05
3.97747e-05
3.98016e-05
3.97609e-05
3.48383e-05
3.48375e-05
3.48373e-05
3.48367e-05
3.98047e-05
3.97717e-05
3.48363e-05
3.4838e-05
3.48353e-05
3.48372e-05
3.48408e-05
3.48358e-05
3.484e-05
3.98074e-05
3.97678e-05
3.4839e-05
3.48378e-05
3.48382e-05
3.97745e-05
3.97961e-05
3.97656e-05
3.48382e-05
3.48375e-05
3.48373e-05
3.48367e-05
3.9805e-05
3.97721e-05
3.48362e-05
3.4838e-05
3.48353e-05
3.48371e-05
3.4841e-05
3.48357e-05
3.48397e-05
3.98054e-05
3.97711e-05
3.48392e-05
3.48376e-05
3.48379e-05
3.97735e-05
3.98029e-05
3.97683e-05
3.48384e-05
3.48378e-05
3.48372e-05
3.48365e-05
3.98072e-05
3.97676e-05
3.48365e-05
3.48382e-05
3.48351e-05
3.48368e-05
3.4841e-05
3.48356e-05
3.48396e-05
3.98073e-05
3.97709e-05
3.48392e-05
3.48377e-05
3.48377e-05
3.97735e-05
3.98071e-05
3.97638e-05
3.48387e-05
3.48381e-05
3.48369e-05
3.48361e-05
3.98063e-05
3.97585e-05
3.48367e-05
3.48385e-05
3.48348e-05
3.48365e-05
3.48411e-05
3.48352e-05
3.48395e-05
3.98083e-05
3.97641e-05
3.48393e-05
3.48374e-05
3.48375e-05
3.97739e-05
3.98044e-05
3.97596e-05
3.48391e-05
3.48383e-05
3.48365e-05
3.48358e-05
3.97987e-05
3.97588e-05
3.4837e-05
3.48388e-05
3.48345e-05
3.48362e-05
3.48415e-05
3.48349e-05
3.48392e-05
3.98044e-05
3.97605e-05
3.48395e-05
3.48368e-05
3.48373e-05
3.97719e-05
3.97985e-05
3.97601e-05
3.48394e-05
3.48386e-05
3.48363e-05
3.48357e-05
3.97927e-05
3.97634e-05
3.48373e-05
3.4839e-05
3.48343e-05
3.48361e-05
3.48418e-05
3.48349e-05
3.4839e-05
3.97982e-05
3.97638e-05
3.48398e-05
3.48369e-05
3.4837e-05
3.9768e-05
3.97946e-05
3.97634e-05
3.48395e-05
3.48389e-05
3.48365e-05
3.48358e-05
3.97967e-05
3.97621e-05
3.48377e-05
3.48393e-05
3.48343e-05
3.48362e-05
3.48422e-05
3.48348e-05
3.48389e-05
3.98008e-05
3.97687e-05
3.48402e-05
3.48369e-05
3.4837e-05
3.97698e-05
3.97971e-05
3.97636e-05
3.48406e-05
3.48399e-05
3.48363e-05
3.48356e-05
3.98009e-05
3.97624e-05
3.48385e-05
3.48403e-05
3.48344e-05
3.48363e-05
3.4843e-05
3.48349e-05
3.4839e-05
3.98071e-05
3.97674e-05
3.4841e-05
3.48368e-05
3.48371e-05
3.97741e-05
3.98011e-05
3.97636e-05
3.4842e-05
3.48413e-05
3.48368e-05
3.48361e-05
3.98022e-05
3.97631e-05
3.48399e-05
3.48418e-05
3.48349e-05
3.48368e-05
3.48444e-05
3.48353e-05
3.48395e-05
3.98068e-05
3.9764e-05
3.48425e-05
3.48373e-05
3.48375e-05
3.97737e-05
3.98018e-05
3.97628e-05
3.48437e-05
3.4843e-05
3.48297e-05
3.48291e-05
3.98016e-05
3.97604e-05
3.48419e-05
3.48438e-05
3.48275e-05
3.48292e-05
3.48464e-05
3.48281e-05
3.48319e-05
3.98037e-05
3.9757e-05
3.48444e-05
3.48297e-05
3.48299e-05
3.97666e-05
3.97967e-05
3.94111e-05
3.48351e-05
3.48345e-05
3.44433e-05
3.44428e-05
3.97957e-05
3.94092e-05
3.4833e-05
3.48349e-05
3.44434e-05
3.44414e-05
3.48374e-05
3.4445e-05
3.44451e-05
3.97903e-05
3.94072e-05
3.48353e-05
3.44448e-05
3.44451e-05
3.94096e-05
3.90278e-05
3.35734e-05
3.35731e-05
3.90281e-05
3.35738e-05
3.35714e-05
2.04552e-05
2.04543e-05
2.0456e-05
3.35749e-05
3.90253e-05
3.35756e-05
5.09921e-06
7.22243e-07
3.39672e-06
3.39666e-06
1.0276e-07
3.52222e-07
4.46205e-07
2.0007e-06
1.07196e-07
3.46541e-07
1.99525e-06
1.0709e-06
3.67328e-07
3.89972e-07
2.63319e-07
2.92711e-07
5.02038e-06
2.49904e-07
6.71686e-06
1.36934e-05
2.12794e-05
3.03294e-07
5.03598e-06
2.57873e-07
6.73182e-06
1.91782e-06
1.91651e-06
1.90336e-06
1.89045e-06
1.90308e-06
1.90192e-06
1.88809e-06
1.00524e-07
7.04282e-07
8.74103e-07
3.89864e-07
1.01279e-07
6.75505e-07
8.66016e-07
1.4143e-05
2.16921e-05
9.63778e-08
8.70004e-07
1.71689e-06
3.89961e-07
9.89296e-08
8.61536e-07
1.45794e-06
1.90058e-06
1.8872e-06
3.50962e-07
1.87033e-06
1.86139e-06
4.91862e-07
9.98533e-06
3.84432e-07
1.25943e-05
3.63225e-05
4.6315e-05
5.02457e-07
9.97305e-06
3.8968e-07
1.27e-05
1.91348e-06
1.91294e-06
1.89851e-06
1.93517e-06
1.94681e-06
1.94635e-06