/*--------------------------------*- C++ -*----------------------------------*\
| =========                 |                                                 |
| \\      /  F ield         | OpenFOAM: The Open Source CFD Toolbox           |
|  \\    /   O peration     | Version:  v1906                                 |
|   \\  /    A nd           | Web:      www.OpenFOAM.com                      |
|    \\/     M anipulation  |                                                 |
\*---------------------------------------------------------------------------*/
FoamFile
{
    version     2.0;
    format      ascii;
    class       volScalarField;
    location    "175";
    object      nut;
}
// * * * * * * * * * * * * * * * * * * * * * * * * * * * * * * * * * * * * * //

dimensions      [0 2 -1 0 0 0 0];


internalField   nonuniform List<scalar> 
171728
(
2.16827e-05
2.72972e-06
2.86807e-06
2.3691e-06
2.16748e-05
2.77505e-06
2.75546e-06
2.3295e-06
2.22791e-05
2.89212e-06
2.89038e-06
2.27467e-06
2.28806e-05
3.03257e-06
3.02743e-06
2.26861e-06
2.35509e-05
3.1912e-06
3.17554e-06
2.24703e-06
2.42534e-05
3.34208e-06
3.33566e-06
2.25088e-06
2.49906e-05
3.48588e-06
3.50231e-06
2.29802e-06
2.57165e-05
3.63408e-06
3.71773e-06
2.34184e-06
2.64279e-05
3.83671e-06
3.91407e-06
2.39655e-06
2.71178e-05
4.0347e-06
4.1432e-06
2.40449e-06
2.77822e-05
4.23313e-06
4.40654e-06
2.36029e-06
2.84161e-05
4.48672e-06
4.67766e-06
2.32536e-06
2.90173e-05
4.70839e-06
4.94493e-06
2.31552e-06
2.95851e-05
4.98074e-06
5.21339e-06
2.28747e-06
3.01518e-05
5.23832e-06
5.5088e-06
2.26088e-06
3.06771e-05
5.42992e-06
5.76979e-06
2.22001e-06
3.11915e-05
5.60986e-06
6.08327e-06
2.23105e-06
3.17064e-05
5.76443e-06
6.32053e-06
2.28306e-06
3.21791e-05
5.87341e-06
6.60489e-06
2.40925e-06
3.25731e-05
6.05504e-06
6.78957e-06
2.67455e-06
3.30001e-05
6.28375e-06
6.68921e-06
3.20641e-06
3.3381e-05
6.78125e-06
6.91709e-06
4.12375e-06
3.36468e-05
7.45123e-06
7.47884e-06
5.55755e-06
3.40008e-05
8.42343e-06
8.41906e-06
7.75882e-06
3.43229e-05
9.97867e-06
9.61708e-06
1.11081e-05
3.46088e-05
1.21849e-05
1.12331e-05
1.54274e-05
3.47921e-05
1.45615e-05
1.31992e-05
2.11499e-05
3.49387e-05
1.66937e-05
1.56831e-05
2.80316e-05
3.5205e-05
1.9528e-05
1.8784e-05
3.53105e-05
3.52175e-05
2.28826e-05
2.23196e-05
4.27461e-05
3.53852e-05
2.63588e-05
2.64482e-05
5.00232e-05
3.55152e-05
3.08303e-05
3.13349e-05
5.69651e-05
3.61638e-05
3.67991e-05
3.69361e-05
6.52718e-05
3.71289e-05
4.34819e-05
4.3294e-05
7.19255e-05
3.86435e-05
5.05395e-05
5.06819e-05
7.77361e-05
4.04924e-05
5.81173e-05
5.86764e-05
8.43971e-05
4.11601e-05
6.33316e-05
6.36412e-05
8.94461e-05
4.05216e-05
6.50218e-05
6.51434e-05
9.06272e-05
3.93944e-05
6.6663e-05
6.67639e-05
9.06803e-05
4.24341e-05
7.42082e-05
7.428e-05
9.44927e-05
5.22171e-05
8.7997e-05
8.80397e-05
0.000103094
6.81968e-05
0.00010448
0.000104501
0.000113481
9.1271e-05
0.000122395
0.000122402
0.000124894
0.000113762
0.000135528
0.000135534
0.000132922
0.000128314
0.000142207
0.000142211
0.00013652
0.000135213
0.000144904
0.000144904
0.000137992
0.000137804
0.000145832
0.000145832
0.000138511
0.000138623
0.000146131
0.00014613
0.000138716
0.000138776
0.000146145
0.000146144
0.000138774
0.000138799
0.000146126
0.000146125
0.000138626
0.000138825
0.00014617
0.000146169
0.000138778
0.000138813
0.000146139
0.000146136
0.000138682
0.000138818
0.000146159
0.000146158
0.000138742
0.000138815
0.000146147
0.000146145
0.000138679
0.000138815
0.000146151
0.000146148
0.000138776
0.000138817
0.000146153
0.000146153
0.000138641
0.000138817
0.000146149
0.000146146
0.000138726
0.000138816
0.00014615
0.000146148
0.000138777
0.000138818
0.000146157
0.000146154
0.000138731
0.000138818
0.000146153
0.00014615
0.000138653
0.000138818
0.000146148
0.000146147
0.000138682
0.000138818
0.000146154
0.000146152
0.000138737
0.000138818
0.000146151
0.000146148
0.000138777
0.000138818
0.000146149
0.000146146
0.000138731
0.000138819
0.000146158
0.000146151
0.000138702
0.000138819
0.000146155
0.000146152
0.000138762
0.000138818
0.000146149
0.000146147
0.000138656
0.000138818
0.000146151
0.000146149
0.000138688
0.00013882
0.000146157
0.000146149
0.00013878
0.000138819
0.000146151
0.000146147
0.000138719
0.00013882
0.000146151
0.000146153
0.00013865
0.000138819
0.000146153
0.000146148
0.000138701
0.00013882
0.000146156
0.000146148
0.000138773
0.00013882
0.000146157
0.000146151
0.00013878
0.000138819
0.000146151
0.000146148
0.000138748
0.000138819
0.000146157
0.00014615
0.000138703
0.000138819
0.000146154
0.000146152
0.000138674
0.000138818
0.000146151
0.000146147
0.000138663
0.000138818
0.000146151
0.000146147
0.000138677
0.000138818
0.000146151
0.000146148
0.000138704
0.000138819
0.000146151
0.000146149
0.000138712
0.000138819
0.00014615
0.000146147
0.000138704
0.000138819
0.000146151
0.000146147
0.000138714
0.000138818
0.000146151
0.000146149
0.000138741
0.000138818
0.000146151
0.000146149
0.00013875
0.000138818
0.000146151
0.000146147
0.000138738
0.000138818
0.000146153
0.000146149
0.000138731
0.000138818
0.000146154
0.000146151
0.000138739
0.000138818
0.000146153
0.00014615
0.000138723
0.000138818
0.000146155
0.000146151
0.000138694
0.000138819
0.00014616
0.000146157
0.000138707
0.00013882
0.000146166
0.000146162
0.00013874
0.00013882
0.000146176
0.000146172
0.000138752
0.000138824
0.000146152
0.000146147
0.000138723
0.000138996
0.000145505
0.000145499
0.000139522
2.33894e-06
2.4438e-06
2.58742e-06
2.32528e-06
2.12792e-06
2.48962e-06
2.23609e-05
2.24967e-05
2.25763e-05
2.24206e-05
2.51219e-06
2.35943e-06
2.31679e-06
2.54091e-06
2.44336e-06
2.38615e-06
2.31187e-06
2.27557e-06
2.7293e-06
2.72536e-06
2.78118e-06
2.8019e-06
2.30615e-06
2.32867e-06
2.29389e-06
2.72841e-06
2.34064e-06
2.7623e-06
3.1237e-06
2.75406e-06
3.24321e-06
2.30193e-06
2.30501e-06
2.74123e-06
2.74034e-06
2.79734e-06
2.34515e-06
2.26333e-06
2.24957e-06
2.81593e-06
2.84205e-06
2.91371e-06
2.95688e-06
2.32035e-06
2.35114e-06
2.37107e-06
2.78799e-06
2.46162e-06
2.87264e-06
3.26901e-06
2.85731e-06
3.27661e-06
2.29877e-06
2.30578e-06
2.8308e-06
2.85459e-06
2.9163e-06
2.28703e-06
2.24219e-06
2.2394e-06
2.94825e-06
2.99572e-06
3.0596e-06
3.11496e-06
2.34999e-06
2.40115e-06
2.49018e-06
2.9017e-06
2.57349e-06
3.0035e-06
3.24463e-06
2.99685e-06
3.05493e-06
2.30052e-06
2.32224e-06
2.95041e-06
2.9945e-06
3.05846e-06
2.2763e-06
2.22977e-06
2.21809e-06
3.09772e-06
3.15375e-06
3.21379e-06
3.26998e-06
2.40404e-06
2.45941e-06
2.59966e-06
3.03716e-06
2.67388e-06
3.14881e-06
2.99055e-06
3.15352e-06
2.88396e-06
2.3204e-06
2.36837e-06
3.09482e-06
3.13867e-06
3.20654e-06
2.26112e-06
2.20525e-06
2.21364e-06
3.25353e-06
3.30736e-06
3.38508e-06
3.40756e-06
2.45899e-06
2.49967e-06
2.70431e-06
3.18821e-06
2.82641e-06
3.31378e-06
2.88359e-06
3.31196e-06
2.93305e-06
2.36953e-06
2.4263e-06
3.24047e-06
3.2975e-06
3.34946e-06
2.25401e-06
2.20568e-06
2.2336e-06
3.43564e-06
3.4418e-06
3.5646e-06
3.56776e-06
2.49554e-06
2.55183e-06
2.87554e-06
3.35798e-06
3.02948e-06
3.49644e-06
2.96735e-06
3.45287e-06
3.12329e-06
2.4258e-06
2.48644e-06
3.39583e-06
3.46586e-06
3.54562e-06
2.30983e-06
2.219e-06
2.26203e-06
3.60484e-06
3.6242e-06
3.72382e-06
3.78216e-06
2.53769e-06
2.59647e-06
3.07476e-06
3.5424e-06
3.19534e-06
3.69231e-06
3.17744e-06
3.59952e-06
3.35107e-06
2.47586e-06
2.53772e-06
3.59562e-06
3.66733e-06
3.75549e-06
2.35414e-06
2.24633e-06
2.27934e-06
3.76277e-06
3.82795e-06
3.8944e-06
3.98438e-06
2.58318e-06
2.63358e-06
3.23732e-06
3.74658e-06
3.37855e-06
3.88788e-06
3.40334e-06
3.79484e-06
3.56675e-06
2.52414e-06
2.57581e-06
3.80577e-06
3.86773e-06
3.93792e-06
2.4079e-06
2.26703e-06
2.30303e-06
3.93308e-06
4.03293e-06
4.09748e-06
4.20807e-06
2.61765e-06
2.63847e-06
3.42137e-06
3.93887e-06
3.59026e-06
4.13521e-06
3.61694e-06
3.98867e-06
3.78002e-06
2.56506e-06
2.59292e-06
3.98537e-06
4.08448e-06
4.14078e-06
2.42612e-06
2.29102e-06
2.30986e-06
4.16197e-06
4.25986e-06
4.3455e-06
4.46279e-06
2.61849e-06
2.62631e-06
3.64959e-06
4.19053e-06
3.83373e-06
4.35922e-06
3.82984e-06
4.18104e-06
3.99683e-06
2.57406e-06
2.57145e-06
4.18907e-06
4.33934e-06
4.36758e-06
2.38683e-06
2.29144e-06
2.29868e-06
4.41359e-06
4.53101e-06
4.5923e-06
4.69077e-06
2.60401e-06
2.59406e-06
3.90233e-06
4.403e-06
4.12986e-06
4.55581e-06
4.06065e-06
4.41655e-06
4.22688e-06
2.55066e-06
2.54819e-06
4.43163e-06
4.61092e-06
4.60939e-06
2.3499e-06
2.27657e-06
2.28756e-06
4.6493e-06
4.74632e-06
4.84706e-06
4.82792e-06
2.5666e-06
2.54e-06
4.20307e-06
4.62756e-06
4.4049e-06
4.83236e-06
4.29244e-06
4.65667e-06
4.4499e-06
2.52422e-06
2.53662e-06
4.68123e-06
4.87577e-06
4.89616e-06
2.34226e-06
2.26116e-06
2.27151e-06
4.90541e-06
4.84825e-06
5.0768e-06
4.94015e-06
2.50836e-06
2.50491e-06
4.48139e-06
4.90601e-06
4.66179e-06
5.13718e-06
4.50324e-06
4.9119e-06
4.68013e-06
2.50854e-06
2.5309e-06
4.96318e-06
5.15008e-06
5.15995e-06
2.32579e-06
2.23478e-06
2.26388e-06
5.13861e-06
4.97209e-06
5.31186e-06
5.10114e-06
2.46674e-06
2.467e-06
4.70116e-06
5.20433e-06
4.91146e-06
5.45085e-06
4.72393e-06
5.18514e-06
4.9077e-06
2.49192e-06
2.53517e-06
5.21645e-06
5.44023e-06
5.39662e-06
2.29611e-06
2.23104e-06
2.25294e-06
5.36523e-06
5.14133e-06
5.53898e-06
5.29409e-06
2.42901e-06
2.4276e-06
4.98403e-06
5.52885e-06
5.15393e-06
5.77002e-06
4.97293e-06
5.39333e-06
5.13203e-06
2.50809e-06
2.57787e-06
5.45864e-06
5.69729e-06
5.63289e-06
2.2599e-06
2.2249e-06
2.27185e-06
5.59641e-06
5.345e-06
5.72447e-06
5.48221e-06
2.39257e-06
2.43318e-06
5.22068e-06
5.86333e-06
5.43636e-06
6.10544e-06
5.19654e-06
5.56263e-06
5.38921e-06
2.5518e-06
2.65909e-06
5.69746e-06
6.01995e-06
5.90482e-06
2.26153e-06
2.24161e-06
2.32704e-06
5.7804e-06
5.53967e-06
5.96129e-06
5.72914e-06
2.39664e-06
2.44612e-06
5.50641e-06
6.17056e-06
5.73149e-06
6.3686e-06
5.45034e-06
5.72542e-06
5.63417e-06
2.63824e-06
2.76229e-06
5.96606e-06
6.26418e-06
6.13983e-06
2.3007e-06
2.30819e-06
2.41571e-06
6.00549e-06
5.7758e-06
6.10661e-06
5.88292e-06
2.41397e-06
2.45508e-06
5.81589e-06
6.42369e-06
5.92192e-06
6.52499e-06
5.70645e-06
5.84522e-06
5.88509e-06
2.73987e-06
2.85158e-06
6.20761e-06
6.51023e-06
6.37365e-06
2.41696e-06
2.41287e-06
2.65162e-06
6.16921e-06
5.94578e-06
6.29324e-06
6.13004e-06
2.43062e-06
2.5982e-06
5.96944e-06
6.5713e-06
6.11812e-06
6.62539e-06
5.95183e-06
6.01161e-06
6.14195e-06
2.8395e-06
3.01526e-06
6.43093e-06
6.78671e-06
6.52837e-06
2.63347e-06
2.68215e-06
3.11641e-06
6.32498e-06
6.17568e-06
6.4935e-06
6.36886e-06
2.62076e-06
3.00716e-06
6.14337e-06
6.64996e-06
6.307e-06
6.77579e-06
6.20045e-06
6.23739e-06
6.42764e-06
3.03568e-06
3.45553e-06
6.54941e-06
6.73978e-06
6.64837e-06
3.11978e-06
3.19538e-06
3.96139e-06
6.53127e-06
6.43926e-06
6.74304e-06
6.73367e-06
3.10609e-06
3.83532e-06
6.36068e-06
6.79788e-06
6.65739e-06
7.04384e-06
6.50265e-06
6.60187e-06
6.76292e-06
3.52351e-06
4.22413e-06
6.67686e-06
6.80794e-06
6.85578e-06
3.95748e-06
4.15499e-06
5.20696e-06
6.86515e-06
6.87683e-06
7.24934e-06
7.34034e-06
4.01383e-06
5.18226e-06
6.78558e-06
7.16015e-06
7.11314e-06
7.49278e-06
6.88666e-06
7.27086e-06
7.31001e-06
4.39759e-06
5.44953e-06
6.96019e-06
7.29455e-06
7.33391e-06
5.25521e-06
5.47969e-06
7.30321e-06
7.41369e-06
7.52992e-06
8.07331e-06
8.16704e-06
5.48458e-06
7.2768e-06
7.28197e-06
7.66356e-06
8.03832e-06
8.32856e-06
7.48712e-06
8.13722e-06
8.13177e-06
5.72706e-06
7.42723e-06
7.50002e-06
8.16396e-06
8.12543e-06
7.2978e-06
7.7958e-06
1.04068e-05
8.3257e-06
8.41753e-06
9.18532e-06
9.34874e-06
7.70493e-06
1.05086e-05
8.30386e-06
8.59426e-06
9.13779e-06
9.43808e-06
8.37254e-06
9.53711e-06
9.25214e-06
7.88705e-06
1.04496e-05
8.36744e-06
9.28053e-06
9.23802e-06
1.04312e-05
1.10975e-05
1.45772e-05
9.5239e-06
9.70556e-06
1.07087e-05
1.08632e-05
1.12807e-05
1.49734e-05
9.48393e-06
9.74898e-06
1.06936e-05
1.09372e-05
9.61389e-06
1.15921e-05
1.07541e-05
1.10535e-05
1.45318e-05
9.59084e-06
1.08086e-05
1.07362e-05
1.45462e-05
1.54375e-05
2.03804e-05
1.11912e-05
1.12766e-05
1.28233e-05
1.25935e-05
1.58924e-05
2.04329e-05
1.11468e-05
1.14088e-05
1.27771e-05
1.2841e-05
1.11778e-05
1.39669e-05
1.27048e-05
1.54885e-05
1.99382e-05
1.11547e-05
1.26361e-05
1.25962e-05
2.00433e-05
2.1567e-05
2.70828e-05
1.34362e-05
1.3113e-05
1.52606e-05
1.49169e-05
2.14063e-05
2.64505e-05
1.34935e-05
1.3366e-05
1.59626e-05
1.5097e-05
1.32993e-05
1.61545e-05
1.51579e-05
2.09669e-05
2.65015e-05
1.31682e-05
1.50359e-05
1.50095e-05
2.67213e-05
2.83671e-05
3.39987e-05
1.58419e-05
1.56102e-05
1.78673e-05
1.80484e-05
2.77406e-05
3.40275e-05
1.68093e-05
1.57243e-05
1.94189e-05
1.79835e-05
1.58134e-05
1.87432e-05
1.79965e-05
2.78113e-05
3.35202e-05
1.56666e-05
1.79496e-05
1.79203e-05
3.39229e-05
3.52737e-05
4.09703e-05
1.86579e-05
1.8946e-05
2.13129e-05
2.17384e-05
3.55702e-05
4.18283e-05
2.02468e-05
1.88613e-05
2.24792e-05
2.16499e-05
1.88215e-05
2.20324e-05
2.13672e-05
3.49298e-05
4.13381e-05
1.87681e-05
2.14026e-05
2.13245e-05
4.1356e-05
4.24317e-05
4.88548e-05
2.23213e-05
2.27961e-05
2.56838e-05
2.6653e-05
4.31513e-05
4.87928e-05
2.32576e-05
2.26187e-05
2.59641e-05
2.5687e-05
2.22551e-05
2.54495e-05
2.54092e-05
4.27608e-05
4.84073e-05
2.22274e-05
2.53209e-05
2.54118e-05
4.85875e-05
5.03262e-05
5.60534e-05
2.68482e-05
2.80043e-05
3.04374e-05
3.14123e-05
5.02206e-05
5.55355e-05
2.69463e-05
2.679e-05
3.00971e-05
3.01859e-05
2.65449e-05
2.95651e-05
2.99257e-05
4.98e-05
5.56651e-05
2.65307e-05
3.00872e-05
2.99309e-05
5.55273e-05
5.74882e-05
6.33903e-05
3.17351e-05
3.24268e-05
3.59108e-05
3.59924e-05
5.67996e-05
6.25659e-05
3.12904e-05
3.13566e-05
3.54912e-05
3.5433e-05
3.11719e-05
3.52001e-05
3.56735e-05
5.71064e-05
6.29741e-05
3.12102e-05
3.5433e-05
3.56334e-05
6.36737e-05
6.48363e-05
7.05136e-05
3.73671e-05
3.73725e-05
4.19629e-05
4.17261e-05
6.41257e-05
7.01102e-05
3.70659e-05
3.69806e-05
4.19888e-05
4.1716e-05
3.74066e-05
4.17938e-05
4.28232e-05
6.4458e-05
7.01272e-05
3.72664e-05
4.16611e-05
4.24361e-05
7.06855e-05
7.19065e-05
7.69748e-05
4.36207e-05
4.3233e-05
4.91967e-05
4.81798e-05
7.14889e-05
7.65282e-05
4.36485e-05
4.32835e-05
4.8741e-05
4.83195e-05
4.45259e-05
4.87115e-05
4.92516e-05
7.14751e-05
7.66842e-05
4.41582e-05
4.86941e-05
4.9249e-05
7.65343e-05
7.82131e-05
8.32663e-05
5.12279e-05
5.00365e-05
5.73978e-05
5.60944e-05
7.78107e-05
8.31665e-05
5.05233e-05
5.02087e-05
5.619e-05
5.63451e-05
5.08753e-05
5.63014e-05
5.63365e-05
7.80459e-05
8.35133e-05
5.10185e-05
5.68292e-05
5.67317e-05
8.29798e-05
8.46155e-05
8.86049e-05
5.92294e-05
5.80026e-05
6.32237e-05
6.23484e-05
8.45667e-05
8.86229e-05
5.79868e-05
5.82568e-05
6.21678e-05
6.25566e-05
5.81481e-05
6.23776e-05
6.24633e-05
8.48779e-05
8.87014e-05
5.85604e-05
6.27714e-05
6.28125e-05
8.86784e-05
8.93429e-05
9.03092e-05
6.40498e-05
6.32873e-05
6.52547e-05
6.47506e-05
8.93658e-05
9.03013e-05
6.31028e-05
6.34743e-05
6.46093e-05
6.48588e-05
6.34402e-05
6.48411e-05
6.49768e-05
8.94091e-05
9.02888e-05
6.37495e-05
6.49835e-05
6.51765e-05
9.04556e-05
9.04882e-05
9.0363e-05
6.5381e-05
6.49428e-05
6.61625e-05
6.58753e-05
9.0473e-05
9.0321e-05
6.48186e-05
6.50223e-05
6.58006e-05
6.59063e-05
6.51554e-05
6.58987e-05
6.59847e-05
9.04588e-05
9.03263e-05
6.53273e-05
6.60028e-05
6.60827e-05
9.04248e-05
9.06397e-05
9.33321e-05
6.69054e-05
6.66552e-05
7.1761e-05
7.16067e-05
9.0595e-05
9.3286e-05
6.65981e-05
6.66869e-05
7.15834e-05
7.16515e-05
6.67346e-05
7.16029e-05
7.16348e-05
9.06045e-05
9.33219e-05
6.68108e-05
7.16832e-05
7.16607e-05
9.33141e-05
9.45121e-05
0.000101382
7.43429e-05
7.42173e-05
8.43124e-05
8.42547e-05
9.44711e-05
0.000101364
7.41992e-05
7.42623e-05
8.42367e-05
8.42872e-05
7.42362e-05
8.42407e-05
8.42618e-05
9.45062e-05
0.000101389
7.42521e-05
8.42891e-05
8.42572e-05
0.000101373
0.000103101
0.000111581
8.80574e-05
8.80139e-05
0.000100126
0.000100106
0.000103087
0.000111575
8.79972e-05
8.80419e-05
0.000100095
0.000100123
8.80223e-05
0.000100099
0.000100121
0.000103109
0.000111588
8.80133e-05
0.000100126
0.000100107
0.000111582
0.000113481
0.00012304
0.0001045
0.000104484
0.000118111
0.0001181
0.000113475
0.000123038
0.000104478
0.0001045
0.000118101
0.00011811
0.0001045
0.000118109
0.000118117
0.000113486
0.000123041
0.000104488
0.000118118
0.000118112
0.000123041
0.000124893
0.000131885
0.000122395
0.000122385
0.000132909
0.000132899
0.000124892
0.000131884
0.000122388
0.000122394
0.00013291
0.000132903
0.000122403
0.000132916
0.000132921
0.000124894
0.000131884
0.0001224
0.000132923
0.000132922
0.00013189
0.000132918
0.000136076
0.000135519
0.000135509
0.000141001
0.000140991
0.000132916
0.000136075
0.000135523
0.000135512
0.000141007
0.00014099
0.000135532
0.000141014
0.000141013
0.000132916
0.000136074
0.000135534
0.000141019
0.000141018
0.000136081
0.000136515
0.000137848
0.000142193
0.000142182
0.000144447
0.000144437
0.000136515
0.000137849
0.0001422
0.000142182
0.000144456
0.000144436
0.000142205
0.000144465
0.00014446
0.000136513
0.000137846
0.000142211
0.000144467
0.000144467
0.000137853
0.000137987
0.000138495
0.000144884
0.000144873
0.000145661
0.00014565
0.000137988
0.000138496
0.000144893
0.000144873
0.000145671
0.000145649
0.000144897
0.000145683
0.000145673
0.000137985
0.000138493
0.000144904
0.000145682
0.000145682
0.0001385
0.000138506
0.000138737
0.000145811
0.0001458
0.000146073
0.000146062
0.000138507
0.000138738
0.000145821
0.000145798
0.000146083
0.00014606
0.000145822
0.000146094
0.000146084
0.000138504
0.000138733
0.000145832
0.000146093
0.000146094
0.00013874
0.000138712
0.000138827
0.00014611
0.0001461
0.000146134
0.000146124
0.000138714
0.000138829
0.00014612
0.000146097
0.000146144
0.000146121
0.000146121
0.000146155
0.000146145
0.000138709
0.000138823
0.000146131
0.000146154
0.000146154
0.00013883
0.00013877
0.000138662
0.000146124
0.000146113
0.000146107
0.000146096
0.000138772
0.000138663
0.000146133
0.00014611
0.000146116
0.000146094
0.000146134
0.000146127
0.000146117
0.000138767
0.00013866
0.000146143
0.000146126
0.000146127
0.000138667
0.000138622
0.000138796
0.000146105
0.000146094
0.000146144
0.000146134
0.000138623
0.000138797
0.000146114
0.000146092
0.000146152
0.000146131
0.000146116
0.000146165
0.000146154
0.000138619
0.000138793
0.000146125
0.000146164
0.000146164
0.000138801
0.000138772
0.000138755
0.000146149
0.000146139
0.000146127
0.000146115
0.000138774
0.000138751
0.000146158
0.000146136
0.000146135
0.000146112
0.00014616
0.000146147
0.000146135
0.00013877
0.000138742
0.000146169
0.000146144
0.000146144
0.000138748
0.00013869
0.000138731
0.000146119
0.000146107
0.000146131
0.000146121
0.000138685
0.000138742
0.000146127
0.000146104
0.000146139
0.000146117
0.000146128
0.000146152
0.000146142
0.000138677
0.00013874
0.000146136
0.000146152
0.000146153
0.00013875
0.000138727
0.00013875
0.000146139
0.000146129
0.000146128
0.000146116
0.000138735
0.000138744
0.000146148
0.000146125
0.000146136
0.000146113
0.000146148
0.000146148
0.000146137
0.000138732
0.000138737
0.000146159
0.000146146
0.000146147
0.000138744
0.000138684
0.000138777
0.000146126
0.000146115
0.000146131
0.000146122
0.000138678
0.000138788
0.000146134
0.000146112
0.000146139
0.000146117
0.000146136
0.000146152
0.000146141
0.000138671
0.000138785
0.000146146
0.000146149
0.000146148
0.000138791
0.000138764
0.000138687
0.00014613
0.000146119
0.00014613
0.000146119
0.000138774
0.000138683
0.000146139
0.000146116
0.000146138
0.000146116
0.000146139
0.000146151
0.00014614
0.00013877
0.000138677
0.000146148
0.00014615
0.00014615
0.000138685
0.000138634
0.000138815
0.000146133
0.000146123
0.000146129
0.000146117
0.000138638
0.0001388
0.000146138
0.000146117
0.000146138
0.000146113
0.000146142
0.000146149
0.000146138
0.000138636
0.000138783
0.000146151
0.000146146
0.000146146
0.000138799
0.000138747
0.000138775
0.000146128
0.000146117
0.000146135
0.000146124
0.000138727
0.000138794
0.000146138
0.000146114
0.000146139
0.000146118
0.000146138
0.000146155
0.000146144
0.00013871
0.000138796
0.000146146
0.000146154
0.000146154
0.0001388
0.000138763
0.00013869
0.000146132
0.00014612
0.000146131
0.000146122
0.000138772
0.000138729
0.000146137
0.000146114
0.000146138
0.000146118
0.000146138
0.000146155
0.000146144
0.000138768
0.000138738
0.000146148
0.000146153
0.000146152
0.000138723
0.000138689
0.000138712
0.000146134
0.000146123
0.00014613
0.000146119
0.000138734
0.000138691
0.00014614
0.000146118
0.000146138
0.000146115
0.000146146
0.000146148
0.000146136
0.000138739
0.00013869
0.000146154
0.000146145
0.000146145
0.000138693
0.000138651
0.000138792
0.000146131
0.000146122
0.000146131
0.000146118
0.000138668
0.000138724
0.000146138
0.000146117
0.000146139
0.000146115
0.00014614
0.000146149
0.000146139
0.000138681
0.000138706
0.000146148
0.000146148
0.000146148
0.00013875
0.000138719
0.000138804
0.000146131
0.00014612
0.000146132
0.000146119
0.000138662
0.00013879
0.000146139
0.000146117
0.000146138
0.000146113
0.000146137
0.000146155
0.000146143
0.000138654
0.000138739
0.000146145
0.000146152
0.000146151
0.000138804
0.00013877
0.000138759
0.00014613
0.000146118
0.000146134
0.000146122
0.000138718
0.000138801
0.000146138
0.000146114
0.00014614
0.000146116
0.00014614
0.000146152
0.000146141
0.000138675
0.000138747
0.000146148
0.000146147
0.00014615
0.00013881
0.000138751
0.000138709
0.000146132
0.000146119
0.000146133
0.000146123
0.000138755
0.000138795
0.000146137
0.000146114
0.00014614
0.000146118
0.000146139
0.000146154
0.000146141
0.000138678
0.000138768
0.000146148
0.000146149
0.000146149
0.000138734
0.00013871
0.000138707
0.000146134
0.00014612
0.000146131
0.000146125
0.000138758
0.000138796
0.00014614
0.000146114
0.000146137
0.000146118
0.000146141
0.000146158
0.000146141
0.000138692
0.000138807
0.00014615
0.000146154
0.000146151
0.000138737
0.000138682
0.000138706
0.000146133
0.000146125
0.000146133
0.000146119
0.00013878
0.000138694
0.00014614
0.000146117
0.000146138
0.000146114
0.000146141
0.000146148
0.000146139
0.000138757
0.000138765
0.000146149
0.00014615
0.000146151
0.000138757
0.000138694
0.000138694
0.000146137
0.000146125
0.000146126
0.000146118
0.0001387
0.000138725
0.000146142
0.000146116
0.000146133
0.000146115
0.000146143
0.000146149
0.000146138
0.000138743
0.00013878
0.000146155
0.000146148
0.000146145
0.000138681
0.000138635
0.000138822
0.000146127
0.000146118
0.000146138
0.000146123
0.000138664
0.0001388
0.000146134
0.000146114
0.000146145
0.000146117
0.000146139
0.000146156
0.000146142
0.000138749
0.000138778
0.000146148
0.000146151
0.00014615
0.000138759
0.000138776
0.000138696
0.000146132
0.000146119
0.000146131
0.000146122
0.000138751
0.000138713
0.000146138
0.000146115
0.000146137
0.000146116
0.000146139
0.000146155
0.000146144
0.000138757
0.000138734
0.000146145
0.000146149
0.000146154
0.000138812
0.000138694
0.000138733
0.000146133
0.000146122
0.000146132
0.00014612
0.000138694
0.000138722
0.00014614
0.000146115
0.000146138
0.000146117
0.000146144
0.000146149
0.000146139
0.000138712
0.000138795
0.000146152
0.000146152
0.000146148
0.000138717
0.000138666
0.000138815
0.000146131
0.00014612
0.000146132
0.000146121
0.00013866
0.000138814
0.000146137
0.000146115
0.00014614
0.000146119
0.000146143
0.000146153
0.000146138
0.000138732
0.000138804
0.000146151
0.000146154
0.000146148
0.000138707
0.000138756
0.000138788
0.000146132
0.000146121
0.000146132
0.000146121
0.000138761
0.000138774
0.00014614
0.000146119
0.000146138
0.000146114
0.000146138
0.000146155
0.000146142
0.000138772
0.000138745
0.00014615
0.000146147
0.000146146
0.000138778
0.000138769
0.000138741
0.000146131
0.000146121
0.000146135
0.000146124
0.000138762
0.000138727
0.000146138
0.000146118
0.000146139
0.000146114
0.000146138
0.000146156
0.000146144
0.000138744
0.000138689
0.000146147
0.000146148
0.000146151
0.000138824
0.000138743
0.000138695
0.000146135
0.000146124
0.000146131
0.00014612
0.000138737
0.00013868
0.000146139
0.000146115
0.00014614
0.000146115
0.000146142
0.000146152
0.000146142
0.000138691
0.000138695
0.000146146
0.000146149
0.000146153
0.000138794
0.000138692
0.000138699
0.000146133
0.000146123
0.000146132
0.000146122
0.000138653
0.000138753
0.000146141
0.000146114
0.000146138
0.000146118
0.000146143
0.000146152
0.00014614
0.000138639
0.00013879
0.000146152
0.000146148
0.000146146
0.000138737
0.000138656
0.000138724
0.000146131
0.000146117
0.000146132
0.000146128
0.000138682
0.000138809
0.000146141
0.000146116
0.000146135
0.000146117
0.000146144
0.000146156
0.000146138
0.000138719
0.000138782
0.00014615
0.000146153
0.000146147
0.000138702
0.000138659
0.000138809
0.000146131
0.000146127
0.000146131
0.000146119
0.00013878
0.000138705
0.000146137
0.000146119
0.000146141
0.000146115
0.000146142
0.000146152
0.000146139
0.000138761
0.000138703
0.000146147
0.000146149
0.000146147
0.0001387
0.000138739
0.000138781
0.000146131
0.000146126
0.000146131
0.000146119
0.000138707
0.000138709
0.000146139
0.000146118
0.000146139
0.000146115
0.000146139
0.000146151
0.000146139
0.000138701
0.000138703
0.000146148
0.000146146
0.000146147
0.000138709
0.000138766
0.000138683
0.000146131
0.00014612
0.00014613
0.000146122
0.000138653
0.000138757
0.000146139
0.000146116
0.000146136
0.000146116
0.000146139
0.000146151
0.00014614
0.000138653
0.000138752
0.000146148
0.000146147
0.000146147
0.000138735
0.000138669
0.000138729
0.000146131
0.000146121
0.000146131
0.000146121
0.000138687
0.000138784
0.000146138
0.000146115
0.000146138
0.000146116
0.000146141
0.000146151
0.000146139
0.000138684
0.000138768
0.000146148
0.000146148
0.000146147
0.000138767
0.000138665
0.000138788
0.000146131
0.000146121
0.00014613
0.000146119
0.000138714
0.000138785
0.000146138
0.000146116
0.000146138
0.000146115
0.000146141
0.00014615
0.000146139
0.000138696
0.000138781
0.000146148
0.000146147
0.000146147
0.000138774
0.000138715
0.000138809
0.000146131
0.00014612
0.000146131
0.000146119
0.000138715
0.000138796
0.000146138
0.000146116
0.00014614
0.000146117
0.000146139
0.00014615
0.000146139
0.000138709
0.000138794
0.000146148
0.000146146
0.000146146
0.000138767
0.000138761
0.000138777
0.000146132
0.000146119
0.000146131
0.000146119
0.000138727
0.000138801
0.000146139
0.000146116
0.000146139
0.000146116
0.000146138
0.00014615
0.000146139
0.000138733
0.000138793
0.000146147
0.000146147
0.000146146
0.000138778
0.000138762
0.000138708
0.000146133
0.00014612
0.000146129
0.000146119
0.000138748
0.000138793
0.000146141
0.000146118
0.000146134
0.000146113
0.000146139
0.000146149
0.000146138
0.000138756
0.000138764
0.000146146
0.000146147
0.000146147
0.000138795
0.000138708
0.00013871
0.000146132
0.00014612
0.000146129
0.000146119
0.000138748
0.000138798
0.000146138
0.000146115
0.000146136
0.000146114
0.00014614
0.000146149
0.000146137
0.000138745
0.000138746
0.000146147
0.000146145
0.000146145
0.00013879
0.000138674
0.000138741
0.000146131
0.000146119
0.00014613
0.000146119
0.000138752
0.0001388
0.000146137
0.000146115
0.000146136
0.000146114
0.00014614
0.000146149
0.000146136
0.00013873
0.000138772
0.000146148
0.000146144
0.000146144
0.000138784
0.000138721
0.000138755
0.000146132
0.000146121
0.00014613
0.000146118
0.000138767
0.000138762
0.000146139
0.000146116
0.000146135
0.000146113
0.000146139
0.000146149
0.000146137
0.000138747
0.00013877
0.000146147
0.000146146
0.000146144
0.000138787
0.000138749
0.000138722
0.000146134
0.000146123
0.000146129
0.000146117
0.000138754
0.0001387
0.00014614
0.000146117
0.000146134
0.000146111
0.00014614
0.000146147
0.000146137
0.000138753
0.00013872
0.000146148
0.000146144
0.000146144
0.000138789
0.000138726
0.000138694
0.000146135
0.000146123
0.000146127
0.000146116
0.000138696
0.00013871
0.000146141
0.000146118
0.000146133
0.00014611
0.000146141
0.000146146
0.000146136
0.000138721
0.0001387
0.000146148
0.000146142
0.000146143
0.000138776
0.000138682
0.000138706
0.000146136
0.000146123
0.000146128
0.000146117
0.000138661
0.000138744
0.000146141
0.000146118
0.000146134
0.000146112
0.000146142
0.000146148
0.000146136
0.00013868
0.000138726
0.000146149
0.000146145
0.000146143
0.000138751
0.000138659
0.000138734
0.000146135
0.000146124
0.000146131
0.00014612
0.000138691
0.000138731
0.000146142
0.000146119
0.000146136
0.000146115
0.000146144
0.000146149
0.000146137
0.000138702
0.000138757
0.00014615
0.000146146
0.000146145
0.000138765
0.000138683
0.000138732
0.000146141
0.000146129
0.000146132
0.000146121
0.000138719
0.000138731
0.000146145
0.000146124
0.000146139
0.000146117
0.000146147
0.000146151
0.000146141
0.000138746
0.000138747
0.000146154
0.000146148
0.000146148
0.000138793
0.000138712
0.00013873
0.000146146
0.000146135
0.000146138
0.000146127
0.000138728
0.000138738
0.000146152
0.00014613
0.000146145
0.000146122
0.000146153
0.000146158
0.000146147
0.000138742
0.000138726
0.000146161
0.000146154
0.000146154
0.000138788
0.000138719
0.000138752
0.000146155
0.000146144
0.000146153
0.000146143
0.000138727
0.000138746
0.000146162
0.000146141
0.000146159
0.000146137
0.000146164
0.000146172
0.000146159
0.000138725
0.000138704
0.000146171
0.000146167
0.000146168
0.000138771
0.000138728
0.000139011
0.000146133
0.000146123
0.000147116
0.000147107
0.000138729
0.000139003
0.000146139
0.000146116
0.000147127
0.000147103
0.000146139
0.000147138
0.000147123
0.000138675
0.000138982
0.000146147
0.000147133
0.000147135
0.000138996
0.000139533
0.000145484
0.000145477
0.000139537
0.000145493
0.00014547
0.000138997
0.000138992
0.000139002
0.000145489
0.000139512
0.000145501
5.85185e-05
7.55302e-06
3.90283e-05
3.89502e-05
6.04968e-07
2.46631e-06
1.67142e-06
2.33046e-05
7.68289e-07
2.50149e-06
2.34072e-05
5.09683e-06
2.38555e-06
1.82766e-06
1.70177e-06
1.11082e-06
1.35796e-05
1.01105e-06
1.5359e-05
1.07818e-05
1.30742e-05
1.13552e-06
1.36024e-05
1.032e-06
1.53749e-05
2.18306e-05
2.18875e-05
2.17469e-05
2.1534e-05
2.16864e-05
2.17488e-05
2.15995e-05
6.55232e-07
5.2384e-07
9.83718e-06
2.71484e-06
6.388e-07
6.44727e-07
9.75032e-06
1.09944e-05
1.32006e-05
6.15397e-07
9.9175e-06
1.89753e-06
2.79922e-06
6.45368e-07
9.82756e-06
1.78184e-06
1.49199e-06
1.49024e-06
2.36618e-06
1.68571e-06
1.69696e-06
1.3772e-06
1.87285e-05
1.17654e-06
2.09982e-05
1.70688e-05
1.92718e-05
1.37311e-06
1.87219e-05
1.19249e-06
2.10896e-05
2.18273e-05
2.19055e-05
2.17429e-05
2.21265e-05
2.22675e-05
2.23524e-05