/*--------------------------------*- C++ -*----------------------------------*\
| =========                 |                                                 |
| \\      /  F ield         | OpenFOAM: The Open Source CFD Toolbox           |
|  \\    /   O peration     | Version:  v1906                                 |
|   \\  /    A nd           | Web:      www.OpenFOAM.com                      |
|    \\/     M anipulation  |                                                 |
\*---------------------------------------------------------------------------*/
FoamFile
{
    version     2.0;
    format      ascii;
    class       volScalarField;
    location    "175";
    object      p;
}
// * * * * * * * * * * * * * * * * * * * * * * * * * * * * * * * * * * * * * //

dimensions      [0 2 -2 0 0 0 0];


internalField   nonuniform List<scalar> 
171728
(
0.00352515
0.00352436
0.00352443
0.00352551
0.00348914
0.00348793
0.00348831
0.00349091
0.00345187
0.00345029
0.00345037
0.0034525
0.00340729
0.00340574
0.00340579
0.00340828
0.00335898
0.00335753
0.00335754
0.00336014
0.00331069
0.00330937
0.00330935
0.00331192
0.00326273
0.00326154
0.00326155
0.00326409
0.00321547
0.00321439
0.00321438
0.00321696
0.00316929
0.00316829
0.00316829
0.00317088
0.00312405
0.00312315
0.00312314
0.00312576
0.00307974
0.00307894
0.00307893
0.00308152
0.00303616
0.00303545
0.00303543
0.00303801
0.00299313
0.00299247
0.00299248
0.00299504
0.00295048
0.00294989
0.00294989
0.00295243
0.00290811
0.00290762
0.00290765
0.00291021
0.0028661
0.00286567
0.00286564
0.00286821
0.0028244
0.002824
0.002824
0.00282648
0.00278304
0.00278267
0.00278266
0.00278513
0.00274204
0.00274169
0.00274168
0.00274409
0.00270138
0.00270103
0.00270106
0.00270337
0.00266105
0.00266073
0.00266072
0.00266297
0.00262104
0.00262074
0.00262074
0.00262292
0.00258133
0.00258105
0.00258105
0.00258322
0.0025419
0.00254166
0.00254165
0.00254385
0.00250273
0.00250243
0.0025025
0.00250476
0.00246383
0.00246362
0.0024636
0.00246597
0.00242518
0.00242502
0.002425
0.00242743
0.00238683
0.00238666
0.00238665
0.00238913
0.00234873
0.00234859
0.00234861
0.00235108
0.0023109
0.00231077
0.00231079
0.00231322
0.00227341
0.00227332
0.00227332
0.0022757
0.00223623
0.0022362
0.00223618
0.00223843
0.00219962
0.00219959
0.00219959
0.00220165
0.00216372
0.00216376
0.00216376
0.00216577
0.00212851
0.00212863
0.00212862
0.00213061
0.0020935
0.0020937
0.00209369
0.00209566
0.0020582
0.00205833
0.00205833
0.00206029
0.00202239
0.00202246
0.00202246
0.0020245
0.00198635
0.00198639
0.00198639
0.00198845
0.00195077
0.00195069
0.00195069
0.0019527
0.00191579
0.00191554
0.00191554
0.00191748
0.00188134
0.00188085
0.00188085
0.00188274
0.00184683
0.00184627
0.00184627
0.00184814
0.00181189
0.00181146
0.00181146
0.00181338
0.00177665
0.00177641
0.00177641
0.00177839
0.00174123
0.00174112
0.00174112
0.00174315
0.00170571
0.00170565
0.00170565
0.00170771
0.00167013
0.0016701
0.0016701
0.00167216
0.00163453
0.0016345
0.0016345
0.00163657
0.00159894
0.00159891
0.00159891
0.00160098
0.00156334
0.00156331
0.00156331
0.00156538
0.00152774
0.00152771
0.00152771
0.00152978
0.00149215
0.00149212
0.00149212
0.00149418
0.00145655
0.00145652
0.00145652
0.00145858
0.00142095
0.00142092
0.00142092
0.00142299
0.00138536
0.00138533
0.00138532
0.00138739
0.00134976
0.00134973
0.00134973
0.0013518
0.00131417
0.00131414
0.00131414
0.00131621
0.00127858
0.00127855
0.00127855
0.00128062
0.001243
0.00124297
0.00124297
0.00124503
0.00120741
0.00120738
0.00120738
0.00120944
0.00117182
0.00117179
0.00117179
0.00117386
0.00113624
0.00113621
0.00113621
0.00113827
0.00110065
0.00110062
0.00110062
0.00110269
0.00106507
0.00106504
0.00106503
0.0010671
0.00102948
0.00102945
0.00102945
0.00103152
0.000993893
0.000993862
0.000993862
0.000995932
0.000958304
0.000958271
0.000958272
0.00096034
0.000922713
0.000922683
0.000922681
0.000924749
0.00088712
0.000887091
0.000887088
0.000889159
0.000851525
0.000851493
0.000851495
0.000853564
0.000815928
0.000815896
0.000815899
0.000817964
0.000780329
0.000780298
0.000780297
0.000782364
0.000744728
0.000744699
0.000744698
0.000746764
0.000709125
0.000709095
0.000709095
0.000711164
0.000673522
0.000673492
0.000673489
0.000675561
0.000637918
0.000637888
0.000637888
0.000639957
0.000602314
0.000602283
0.000602284
0.000604352
0.00056671
0.000566678
0.000566677
0.000568747
0.000531105
0.000531073
0.000531073
0.000533142
0.000495501
0.000495469
0.000495471
0.000497538
0.000459898
0.000459865
0.000459867
0.000461934
0.000424295
0.000424263
0.000424263
0.000426331
0.000388695
0.000388663
0.000388663
0.000390729
0.000353096
0.000353065
0.000353066
0.00035513
0.000317499
0.000317468
0.000317467
0.000319532
0.000281903
0.000281872
0.000281871
0.000283935
0.000246309
0.00024628
0.00024628
0.000248339
0.000210717
0.000210687
0.000210688
0.000212744
0.000175126
0.000175096
0.000175095
0.000177147
0.000139533
0.000139507
0.000139506
0.000141546
0.000103931
0.000103914
0.000103914
0.000105933
6.83416e-05
6.83166e-05
6.83154e-05
7.03044e-05
3.35976e-05
3.3115e-05
3.31123e-05
3.48634e-05
5.20437e-06
5.25415e-06
5.25481e-06
4.44704e-06
0.00353041
0.00352846
0.00352851
0.00353043
0.00352846
0.00352855
0.00353383
0.00353382
0.00353386
0.00353385
0.00352852
0.00352849
0.00353049
0.0035286
0.00352851
0.00353043
0.00352549
0.00349548
0.00352436
0.00352435
0.0034972
0.00349722
0.00352549
0.00349548
0.00352436
0.00352441
0.0034972
0.0034972
0.00352439
0.0034972
0.00349718
0.00352554
0.00349553
0.00352439
0.00349698
0.0034972
0.00349552
0.00349087
0.00345792
0.0034879
0.00348789
0.00346001
0.00346
0.00349088
0.0034579
0.0034879
0.00348794
0.00346003
0.00345994
0.00348799
0.00345995
0.00345995
0.00349094
0.00345787
0.00348794
0.00346008
0.00346001
0.00345791
0.0034525
0.00341454
0.00345016
0.00345023
0.00341755
0.00341767
0.00345251
0.00341448
0.00345014
0.00345018
0.0034176
0.00341753
0.00345022
0.00341767
0.00341751
0.0034525
0.00341453
0.00345016
0.00341737
0.00341756
0.00341451
0.0034083
0.00336659
0.00340585
0.00340575
0.00336972
0.00336975
0.00340823
0.00336658
0.0034058
0.00340586
0.00336972
0.00336973
0.00340587
0.00336974
0.0033697
0.0034083
0.00336658
0.0034058
0.00336972
0.00336973
0.00336657
0.00336016
0.00331828
0.00335756
0.00335755
0.00332137
0.00332142
0.00336017
0.00331827
0.00335756
0.00335756
0.00332136
0.00332137
0.00335751
0.00332141
0.00332136
0.00336016
0.00331828
0.00335753
0.00332137
0.00332135
0.00331827
0.00331192
0.0032704
0.00330936
0.00330938
0.00327347
0.00327347
0.00331191
0.00327036
0.00330934
0.00330935
0.00327346
0.00327348
0.00330932
0.00327347
0.00327346
0.00331193
0.0032704
0.00330936
0.00327346
0.00327347
0.00327038
0.00326411
0.00322312
0.00326153
0.00326154
0.00322605
0.00322606
0.00326408
0.00322311
0.00326153
0.00326155
0.00322604
0.00322605
0.00326151
0.00322606
0.00322603
0.00326412
0.00322311
0.00326153
0.00322607
0.00322606
0.00322312
0.00321697
0.0031769
0.00321438
0.00321439
0.00317971
0.00317972
0.00321697
0.00317689
0.00321437
0.00321439
0.00317971
0.00317973
0.00321436
0.00317972
0.00317971
0.00321697
0.00317689
0.00321438
0.00317972
0.00317972
0.00317689
0.00317088
0.00313163
0.00316829
0.00316829
0.00313435
0.00313434
0.00317088
0.00313163
0.00316828
0.00316829
0.00313435
0.00313435
0.00316828
0.00313434
0.00313434
0.00317089
0.00313162
0.00316829
0.00313434
0.00313435
0.00313164
0.00312575
0.00308728
0.00312314
0.00312315
0.0030899
0.0030899
0.00312576
0.00308728
0.00312313
0.00312315
0.0030899
0.00308991
0.00312313
0.00308991
0.0030899
0.00312575
0.00308728
0.00312313
0.0030899
0.0030899
0.00308727
0.00308152
0.00304369
0.00307892
0.00307893
0.00304625
0.00304625
0.00308153
0.0030437
0.00307892
0.00307893
0.00304625
0.00304626
0.00307894
0.00304626
0.00304624
0.00308153
0.0030437
0.00307893
0.00304625
0.00304623
0.00304367
0.00303802
0.00300067
0.00303543
0.00303544
0.00300317
0.00300315
0.00303804
0.00300062
0.00303542
0.00303544
0.00300317
0.00300318
0.00303543
0.00300315
0.00300317
0.00303802
0.00300065
0.00303543
0.00300318
0.00300317
0.00300065
0.00299508
0.00295799
0.00299248
0.00299247
0.0029605
0.00296052
0.00299504
0.002958
0.00299249
0.00299248
0.0029605
0.00296052
0.00299247
0.00296052
0.00296052
0.00299506
0.00295799
0.00299248
0.00296051
0.00296052
0.00295798
0.00295247
0.00291562
0.0029499
0.00294989
0.00291819
0.00291818
0.00295245
0.00291567
0.00294991
0.00294989
0.00291818
0.00291821
0.00294989
0.00291818
0.00291821
0.00295245
0.00291571
0.00294989
0.00291821
0.00291821
0.00291572
0.00291012
0.00287366
0.0029076
0.00290762
0.00287615
0.0028761
0.00291017
0.00287366
0.0029076
0.00290765
0.00287614
0.0028761
0.00290765
0.0028761
0.00287609
0.00291021
0.00287362
0.00290765
0.0028761
0.00287609
0.00287363
0.00286822
0.0028319
0.00286567
0.00286567
0.00283439
0.00283436
0.00286823
0.00283189
0.00286566
0.00286564
0.00283439
0.00283441
0.00286566
0.00283436
0.00283439
0.00286819
0.0028319
0.00286565
0.00283441
0.00283439
0.00283187
0.00282652
0.00279043
0.00282401
0.00282401
0.00279297
0.00279295
0.00282652
0.00279043
0.00282401
0.00282401
0.00279298
0.00279298
0.00282398
0.00279295
0.00279298
0.00282651
0.00279044
0.00282399
0.00279298
0.00279298
0.00279045
0.00278511
0.00274936
0.00278266
0.00278268
0.00275191
0.00275188
0.00278513
0.00274935
0.00278266
0.00278266
0.0027519
0.00275191
0.00278267
0.00275188
0.00275189
0.00278511
0.00274935
0.00278267
0.00275191
0.00275189
0.00274935
0.00274409
0.00270857
0.00274169
0.00274169
0.00271118
0.00271117
0.00274409
0.00270855
0.00274169
0.00274168
0.00271117
0.00271118
0.00274168
0.00271116
0.00271118
0.00274408
0.00270859
0.00274167
0.00271119
0.00271119
0.00270858
0.00270337
0.00266814
0.00270105
0.00270103
0.00267077
0.00267079
0.00270334
0.00266812
0.00270105
0.00270105
0.00267077
0.00267077
0.00270105
0.00267078
0.00267078
0.00270338
0.00266812
0.00270105
0.00267076
0.00267077
0.00266812
0.00266299
0.00262804
0.00266073
0.00266073
0.00263072
0.00263071
0.00266297
0.00262803
0.00266073
0.00266073
0.00263071
0.00263071
0.00266074
0.00263071
0.00263071
0.00266296
0.00262802
0.00266073
0.00263071
0.00263071
0.00262802
0.00262294
0.00258825
0.00262075
0.00262074
0.00259094
0.00259095
0.00262295
0.00258827
0.00262074
0.00262074
0.00259094
0.00259095
0.00262074
0.00259096
0.00259095
0.00262292
0.00258828
0.00262074
0.00259094
0.00259095
0.00258827
0.0025832
0.00254886
0.00258104
0.00258105
0.00255147
0.00255145
0.00258321
0.00254887
0.00258105
0.00258106
0.00255147
0.00255147
0.00258105
0.00255147
0.00255146
0.00258323
0.00254885
0.00258105
0.00255147
0.00255147
0.00254886
0.00254385
0.00250974
0.00254164
0.00254163
0.00251225
0.00251223
0.00254385
0.00250969
0.00254165
0.00254164
0.00251226
0.00251227
0.00254164
0.00251222
0.00251224
0.00254383
0.00250977
0.00254164
0.00251226
0.00251225
0.00250975
0.00250477
0.00247095
0.00250249
0.00250246
0.0024733
0.00247331
0.00250471
0.00247094
0.0025025
0.00250251
0.00247333
0.00247329
0.00250247
0.00247329
0.0024733
0.00250478
0.00247091
0.00250248
0.0024733
0.00247331
0.00247092
0.00246597
0.00243231
0.0024636
0.00246361
0.0024346
0.00243462
0.00246599
0.00243234
0.00246362
0.00246359
0.00243457
0.00243462
0.00246361
0.00243465
0.00243463
0.00246596
0.00243237
0.00246361
0.00243462
0.00243463
0.00243236
0.00242738
0.00239405
0.00242498
0.002425
0.00239621
0.00239626
0.0024274
0.00239409
0.00242495
0.002425
0.00239623
0.0023962
0.002425
0.00239622
0.00239622
0.00242743
0.00239402
0.002425
0.00239621
0.00239622
0.00239405
0.00238913
0.00235596
0.00238665
0.00238669
0.00235809
0.00235809
0.00238917
0.00235596
0.00238668
0.00238664
0.0023581
0.0023581
0.00238667
0.00235809
0.00235811
0.0023891
0.00235598
0.00238666
0.0023581
0.0023581
0.00235598
0.00235106
0.00231813
0.0023486
0.00234858
0.00232023
0.0023202
0.00235105
0.00231807
0.0023486
0.00234861
0.00232021
0.00232022
0.00234862
0.00232019
0.00232022
0.00235109
0.0023181
0.00234861
0.00232021
0.00232023
0.00231811
0.00231325
0.00228057
0.00231081
0.00231079
0.00228267
0.00228267
0.00231319
0.00228054
0.00231079
0.00231079
0.00228266
0.00228266
0.0023108
0.00228265
0.00228267
0.00231321
0.00228054
0.0023108
0.00228266
0.00228267
0.00228055
0.0022757
0.00224328
0.00227334
0.00227333
0.00224545
0.00224542
0.00227569
0.00224327
0.00227333
0.00227332
0.00224544
0.00224543
0.00227333
0.00224545
0.00224543
0.00227569
0.00224328
0.00227333
0.00224543
0.00224543
0.00224327
0.00223845
0.00220649
0.00223621
0.00223617
0.00220867
0.00220867
0.00223844
0.0022065
0.00223619
0.00223617
0.00220868
0.00220867
0.00223617
0.00220867
0.00220863
0.00223844
0.00220648
0.00223617
0.00220866
0.00220862
0.00220641
0.00220173
0.00217042
0.00219959
0.00219959
0.00217264
0.00217264
0.00220175
0.00217045
0.0021996
0.00219959
0.00217263
0.00217264
0.00219955
0.00217264
0.00217261
0.00220173
0.00217045
0.00219954
0.00217265
0.00217262
0.00217042
0.00216575
0.00213514
0.00216375
0.00216375
0.00213734
0.00213736
0.00216578
0.00213517
0.00216373
0.00216375
0.00213733
0.00213736
0.00216372
0.00213736
0.00213736
0.00216578
0.00213516
0.00216374
0.00213736
0.00213736
0.0021352
0.00213055
0.00210025
0.0021286
0.00212863
0.00210243
0.00210246
0.00213058
0.00210025
0.0021286
0.00212863
0.00210246
0.00210246
0.00212864
0.00210246
0.00210249
0.00213057
0.00210025
0.00212863
0.00210245
0.00210248
0.00210028
0.00209564
0.00206499
0.00209367
0.00209369
0.00206721
0.00206722
0.00209563
0.00206498
0.0020937
0.0020937
0.00206723
0.00206722
0.00209373
0.00206722
0.00206723
0.00209563
0.00206498
0.00209372
0.00206722
0.00206723
0.00206499
0.00206029
0.00202926
0.00205832
0.00205832
0.00203147
0.00203146
0.00206028
0.00202925
0.00205834
0.00205832
0.00203147
0.00203146
0.00205833
0.00203146
0.00203146
0.00206029
0.00202926
0.00205833
0.00203146
0.00203146
0.00202925
0.00202451
0.00199321
0.00202246
0.00202246
0.00199539
0.00199539
0.00202451
0.00199321
0.00202246
0.00202246
0.00199539
0.00199539
0.00202246
0.00199539
0.00199539
0.00202451
0.00199321
0.00202246
0.00199539
0.00199539
0.00199321
0.00198845
0.00195739
0.00198639
0.00198639
0.00195956
0.00195956
0.00198845
0.00195739
0.00198639
0.00198639
0.00195956
0.00195956
0.00198639
0.00195956
0.00195956
0.00198845
0.00195739
0.00198639
0.00195956
0.00195956
0.00195739
0.0019527
0.00192211
0.00195069
0.00195069
0.00192428
0.00192427
0.0019527
0.00192211
0.00195069
0.00195069
0.00192428
0.00192428
0.00195069
0.00192428
0.00192428
0.0019527
0.00192211
0.00195069
0.00192428
0.00192428
0.00192211
0.00191748
0.00188733
0.00191554
0.00191553
0.0018895
0.0018895
0.00191748
0.00188734
0.00191554
0.00191554
0.00188949
0.0018895
0.00191554
0.0018895
0.00188949
0.00191748
0.00188734
0.00191554
0.0018895
0.0018895
0.00188733
0.00188274
0.00185277
0.00188085
0.00188085
0.00185493
0.00185493
0.00188274
0.00185276
0.00188085
0.00188085
0.00185493
0.00185493
0.00188085
0.00185493
0.00185493
0.00188274
0.00185277
0.00188085
0.00185493
0.00185493
0.00185276
0.00184814
0.00181804
0.00184627
0.00184627
0.00182018
0.00182018
0.00184814
0.00181804
0.00184627
0.00184627
0.00182018
0.00182018
0.00184627
0.00182018
0.00182018
0.00184815
0.00181804
0.00184627
0.00182018
0.00182018
0.00181804
0.00181338
0.00178309
0.00181146
0.00181146
0.00178519
0.00178519
0.00181338
0.00178309
0.00181146
0.00181146
0.00178519
0.00178519
0.00181146
0.0017852
0.00178519
0.00181338
0.00178309
0.00181146
0.00178519
0.00178519
0.00178309
0.00177839
0.00174788
0.00177641
0.00177641
0.00174996
0.00174996
0.00177839
0.00174788
0.00177641
0.00177641
0.00174996
0.00174996
0.00177641
0.00174996
0.00174996
0.00177839
0.00174788
0.00177641
0.00174996
0.00174996
0.00174788
0.00174315
0.00171246
0.00174112
0.00174112
0.00171453
0.00171453
0.00174315
0.00171246
0.00174112
0.00174112
0.00171453
0.00171453
0.00174112
0.00171453
0.00171453
0.00174315
0.00171246
0.00174112
0.00171453
0.00171453
0.00171246
0.00170771
0.00167693
0.00170565
0.00170565
0.00167899
0.00167899
0.00170771
0.00167693
0.00170565
0.00170565
0.00167899
0.00167899
0.00170565
0.00167899
0.00167899
0.00170771
0.00167693
0.00170565
0.00167899
0.00167899
0.00167693
0.00167216
0.00164134
0.0016701
0.0016701
0.0016434
0.0016434
0.00167216
0.00164134
0.0016701
0.0016701
0.0016434
0.0016434
0.0016701
0.0016434
0.0016434
0.00167216
0.00164134
0.0016701
0.0016434
0.0016434
0.00164134
0.00163657
0.00160574
0.0016345
0.0016345
0.00160781
0.00160781
0.00163657
0.00160574
0.0016345
0.0016345
0.00160781
0.00160781
0.0016345
0.00160781
0.00160781
0.00163657
0.00160574
0.0016345
0.00160781
0.00160781
0.00160574
0.00160098
0.00157015
0.00159891
0.00159891
0.00157221
0.00157221
0.00160098
0.00157015
0.00159891
0.00159891
0.00157221
0.00157221
0.00159891
0.00157221
0.00157221
0.00160098
0.00157015
0.00159891
0.00157221
0.00157221
0.00157015
0.00156538
0.00153455
0.00156331
0.00156331
0.00153661
0.00153661
0.00156538
0.00153455
0.00156331
0.00156331
0.00153661
0.00153661
0.00156331
0.00153661
0.00153661
0.00156538
0.00153455
0.00156331
0.00153661
0.00153661
0.00153455
0.00152978
0.00149895
0.00152771
0.00152771
0.00150102
0.00150102
0.00152978
0.00149895
0.00152771
0.00152771
0.00150102
0.00150102
0.00152771
0.00150102
0.00150102
0.00152978
0.00149895
0.00152771
0.00150102
0.00150102
0.00149895
0.00149418
0.00146335
0.00149212
0.00149212
0.00146541
0.00146541
0.00149418
0.00146335
0.00149212
0.00149212
0.00146541
0.00146541
0.00149212
0.00146541
0.00146541
0.00149418
0.00146335
0.00149212
0.00146541
0.00146541
0.00146335
0.00145858
0.00142776
0.00145652
0.00145652
0.00142982
0.00142982
0.00145858
0.00142776
0.00145652
0.00145652
0.00142982
0.00142982
0.00145652
0.00142982
0.00142982
0.00145858
0.00142776
0.00145652
0.00142982
0.00142982
0.00142776
0.00142299
0.00139216
0.00142092
0.00142092
0.00139422
0.00139422
0.00142299
0.00139216
0.00142092
0.00142092
0.00139422
0.00139422
0.00142092
0.00139422
0.00139422
0.00142299
0.00139216
0.00142092
0.00139422
0.00139422
0.00139216
0.00138739
0.00135657
0.00138533
0.00138533
0.00135863
0.00135863
0.00138739
0.00135657
0.00138532
0.00138532
0.00135863
0.00135863
0.00138533
0.00135863
0.00135863
0.00138739
0.00135657
0.00138532
0.00135863
0.00135863
0.00135656
0.0013518
0.00132098
0.00134973
0.00134973
0.00132304
0.00132304
0.0013518
0.00132098
0.00134973
0.00134973
0.00132304
0.00132304
0.00134973
0.00132304
0.00132304
0.0013518
0.00132098
0.00134973
0.00132304
0.00132304
0.00132098
0.00131621
0.00128539
0.00131414
0.00131414
0.00128745
0.00128745
0.00131621
0.00128539
0.00131414
0.00131414
0.00128745
0.00128745
0.00131414
0.00128745
0.00128745
0.00131621
0.00128539
0.00131414
0.00128745
0.00128745
0.00128539
0.00128062
0.0012498
0.00127855
0.00127855
0.00125186
0.00125186
0.00128062
0.0012498
0.00127855
0.00127855
0.00125186
0.00125186
0.00127855
0.00125186
0.00125186
0.00128062
0.0012498
0.00127855
0.00125186
0.00125186
0.0012498
0.00124503
0.00121421
0.00124297
0.00124297
0.00121627
0.00121627
0.00124503
0.00121421
0.00124296
0.00124297
0.00121627
0.00121627
0.00124297
0.00121627
0.00121627
0.00124503
0.00121421
0.00124297
0.00121627
0.00121627
0.00121421
0.00120944
0.00117863
0.00120738
0.00120738
0.00118069
0.00118069
0.00120945
0.00117863
0.00120738
0.00120738
0.00118069
0.00118069
0.00120738
0.00118069
0.00118069
0.00120945
0.00117863
0.00120738
0.00118069
0.00118069
0.00117863
0.00117386
0.00114304
0.00117179
0.00117179
0.0011451
0.0011451
0.00117386
0.00114304
0.00117179
0.00117179
0.0011451
0.0011451
0.00117179
0.0011451
0.0011451
0.00117386
0.00114304
0.00117179
0.0011451
0.0011451
0.00114304
0.00113827
0.00110746
0.0011362
0.0011362
0.00110952
0.00110952
0.00113827
0.00110746
0.0011362
0.0011362
0.00110952
0.00110952
0.00113621
0.00110952
0.00110952
0.00113827
0.00110745
0.00113621
0.00110952
0.00110952
0.00110746
0.00110269
0.00107187
0.00110062
0.00110062
0.00107393
0.00107393
0.00110269
0.00107187
0.00110062
0.00110062
0.00107393
0.00107393
0.00110062
0.00107393
0.00107393
0.00110269
0.00107187
0.00110062
0.00107393
0.00107393
0.00107187
0.0010671
0.00103629
0.00106504
0.00106504
0.00103835
0.00103835
0.0010671
0.00103629
0.00106504
0.00106504
0.00103835
0.00103835
0.00106504
0.00103835
0.00103835
0.0010671
0.00103628
0.00106504
0.00103835
0.00103835
0.00103629
0.00103152
0.0010007
0.00102945
0.00102945
0.00100276
0.00100276
0.00103152
0.0010007
0.00102945
0.00102945
0.00100276
0.00100276
0.00102945
0.00100276
0.00100276
0.00103152
0.0010007
0.00102945
0.00100276
0.00100276
0.0010007
0.000995931
0.000965107
0.000993863
0.000993863
0.000967169
0.000967169
0.00099593
0.000965108
0.000993862
0.000993861
0.000967169
0.00096717
0.000993862
0.00096717
0.00096717
0.000995928
0.000965108
0.000993864
0.00096717
0.000967169
0.000965107
0.000960338
0.00092952
0.000958271
0.000958271
0.000931581
0.000931581
0.000960339
0.000929521
0.000958271
0.000958272
0.000931581
0.000931581
0.000958272
0.000931582
0.000931582
0.00096034
0.000929518
0.000958271
0.00093158
0.000931581
0.000929518
0.000924751
0.000893925
0.000922682
0.000922682
0.000895988
0.000895988
0.000924751
0.000893926
0.000922682
0.000922681
0.000895988
0.000895989
0.000922683
0.000895987
0.000895988
0.000924749
0.000893924
0.000922681
0.000895988
0.000895989
0.000893927
0.000889157
0.00085833
0.000887089
0.000887089
0.000860394
0.000860394
0.000889158
0.00085833
0.000887089
0.000887088
0.000860394
0.000860395
0.000887092
0.000860392
0.000860391
0.000889155
0.000858332
0.00088709
0.000860396
0.000860394
0.000858332
0.000853561
0.000822734
0.000851495
0.000851495
0.000824796
0.000824796
0.000853561
0.000822735
0.000851495
0.000851495
0.000824797
0.000824797
0.000851495
0.000824797
0.000824796
0.000853562
0.000822735
0.000851497
0.000824797
0.000824795
0.000822733
0.000817964
0.000787137
0.000815897
0.000815897
0.000789199
0.000789198
0.000817964
0.000787138
0.000815898
0.000815899
0.000789197
0.000789197
0.000815895
0.0007892
0.000789199
0.000817966
0.000787137
0.000815898
0.000789197
0.000789197
0.000787134
0.000782366
0.000751537
0.000780298
0.000780298
0.000753598
0.000753597
0.000782367
0.000751537
0.000780297
0.000780298
0.000753598
0.000753597
0.000780297
0.000753598
0.0007536
0.000782367
0.000751535
0.000780296
0.000753598
0.000753599
0.000751536
0.000746767
0.000715934
0.000744697
0.000744697
0.000717994
0.000717993
0.000746767
0.000715931
0.000744697
0.000744696
0.000717996
0.000717995
0.000744698
0.000717994
0.000717997
0.000746766
0.000715931
0.000744697
0.000717994
0.000717996
0.000715934
0.000711164
0.000680329
0.000709094
0.000709092
0.000682392
0.000682393
0.000711161
0.00068033
0.000709096
0.000709094
0.00068239
0.000682393
0.000709097
0.000682392
0.000682392
0.000711162
0.000680329
0.000709096
0.000682391
0.000682391
0.00068033
0.00067556
0.000644723
0.000673491
0.00067349
0.000646788
0.000646789
0.000675558
0.000644727
0.000673492
0.000673492
0.000646786
0.000646788
0.000673493
0.000646787
0.000646786
0.000675558
0.000644727
0.000673491
0.00064679
0.000646788
0.000644726
0.000639953
0.000609121
0.000637887
0.000637889
0.000611183
0.000611181
0.000639957
0.000609121
0.000637886
0.000637889
0.000611183
0.000611182
0.000637888
0.000611182
0.000611183
0.000639957
0.000609121
0.000637888
0.000611182
0.000611183
0.000609122
0.00060435
0.000573518
0.000602283
0.000602283
0.000575579
0.000575577
0.000604352
0.000573516
0.000602282
0.000602283
0.000575578
0.000575577
0.000602282
0.000575578
0.00057558
0.000604352
0.000573516
0.000602284
0.000575578
0.000575578
0.000573517
0.000568748
0.000537912
0.000566678
0.000566677
0.000539975
0.000539975
0.000568746
0.000537912
0.000566678
0.000566677
0.000539974
0.000539975
0.000566679
0.000539974
0.000539975
0.000568746
0.000537912
0.000566679
0.000539975
0.000539974
0.000537912
0.000533142
0.000502307
0.000531074
0.000531073
0.000504371
0.00050437
0.000533141
0.000502307
0.000531073
0.000531073
0.00050437
0.000504371
0.000531075
0.00050437
0.000504369
0.000533141
0.000502307
0.000531074
0.000504371
0.00050437
0.000502307
0.000497537
0.000466703
0.00049547
0.000495471
0.000468767
0.000468765
0.000497537
0.000466703
0.000495469
0.000495469
0.000468767
0.000468767
0.00049547
0.000468766
0.000468766
0.000497537
0.000466703
0.000495471
0.000468766
0.000468765
0.000466704
0.000461932
0.000431103
0.000459867
0.000459866
0.000433165
0.000433163
0.000461933
0.000431101
0.000459864
0.000459864
0.000433166
0.000433166
0.000459865
0.000433164
0.000433164
0.000461932
0.000431102
0.000459867
0.000433163
0.000433162
0.000431101
0.000426332
0.000395502
0.000424265
0.000424263
0.000397562
0.000397562
0.00042633
0.000395501
0.000424265
0.000424265
0.000397562
0.000397562
0.000424263
0.000397564
0.000397564
0.00042633
0.000395501
0.000424263
0.000397564
0.000397563
0.0003955
0.000390732
0.000359902
0.000388665
0.000388662
0.000361962
0.000361962
0.000390729
0.000359901
0.000388665
0.000388664
0.000361962
0.000361963
0.000388663
0.000361964
0.000361964
0.00039073
0.000359902
0.000388662
0.000361965
0.000361964
0.000359902
0.000355131
0.000324305
0.000353065
0.000353063
0.000326365
0.000326366
0.000355129
0.000324304
0.000353064
0.000353063
0.000326366
0.000326366
0.000353065
0.000326366
0.000326365
0.00035513
0.000324304
0.000353065
0.000326364
0.000326365
0.000324303
0.000319532
0.00028871
0.000317467
0.000317466
0.00029077
0.000290771
0.000319531
0.00028871
0.000317467
0.000317467
0.000290771
0.000290771
0.000317468
0.00029077
0.000290769
0.000319531
0.000288709
0.000317468
0.000290769
0.000290768
0.000288708
0.000283935
0.000253117
0.000281872
0.000281873
0.000255176
0.000255175
0.000283935
0.000253117
0.000281873
0.000281873
0.000255175
0.000255175
0.000281872
0.000255175
0.000255175
0.000283935
0.000253117
0.000281872
0.000255176
0.000255173
0.000253114
0.000248341
0.000217526
0.00024628
0.00024628
0.000219582
0.000219581
0.000248341
0.000217525
0.00024628
0.000246281
0.000219581
0.00021958
0.000246278
0.000219581
0.000219582
0.000248341
0.000217524
0.000246279
0.00021958
0.000219579
0.000217523
0.000212746
0.000181935
0.000210689
0.000210689
0.000183987
0.000183988
0.000212745
0.000181935
0.000210689
0.000210689
0.000183988
0.000183988
0.000210687
0.000183989
0.000183989
0.000212746
0.000181934
0.000210686
0.000183988
0.000183988
0.000181935
0.000177148
0.000146348
0.000175097
0.000175097
0.000148398
0.000148399
0.000177147
0.000146349
0.000175098
0.000175096
0.000148396
0.000148398
0.000175097
0.000148399
0.000148398
0.000177147
0.000146348
0.000175096
0.000148399
0.000148397
0.000146347
0.000141546
0.00011076
0.000139507
0.000139506
0.000112803
0.000112804
0.000141545
0.000110761
0.000139507
0.000139505
0.000112802
0.000112804
0.000139507
0.000112804
0.000112803
0.000141545
0.00011076
0.000139506
0.000112804
0.000112803
0.000110759
0.000105934
7.51658e-05
0.000103915
0.000103915
7.71994e-05
7.71995e-05
0.000105934
7.51665e-05
0.000103914
0.000103913
7.71996e-05
7.72001e-05
0.000103913
7.72006e-05
7.72001e-05
0.000105933
7.51653e-05
0.000103913
7.71996e-05
7.71997e-05
7.51651e-05
7.0305e-05
3.96757e-05
6.83159e-05
6.83158e-05
4.17336e-05
4.17345e-05
7.03048e-05
3.96769e-05
6.83155e-05
6.83151e-05
4.1732e-05
4.17306e-05
6.83152e-05
4.17332e-05
4.17304e-05
7.03045e-05
3.96738e-05
6.83152e-05
4.17297e-05
4.1729e-05
3.96732e-05
3.4866e-05
7.54018e-06
3.31146e-05
3.31158e-05
1.02369e-05
1.0236e-05
3.48662e-05
7.5403e-06
3.31146e-05
3.31131e-05
1.02355e-05
1.02305e-05
3.31116e-05
1.0235e-05
1.02296e-05
3.48642e-05
7.537e-06
3.31115e-05
1.02332e-05
1.02328e-05
7.53596e-06
4.44939e-06
5.2571e-06
5.25507e-06
4.45047e-06
5.25148e-06
5.25036e-06
5.20399e-06
5.20248e-06
5.2024e-06
5.25198e-06
4.44824e-06
5.2521e-06
0.0035374
0.00354045
0.00353917
0.00353918
0.003564
0.00354117
0.00356935
0.00354061
0.00356406
0.00354119
0.00354064
0.00356937
0.00355127
0.00357267
0.00357255
0.00350885
0.00352304
0.0035269
0.00350129
0.00349982
0.0035048
0.00350882
0.00352305
0.00352686
0.00350128
0.00352514
0.00352518
0.00352517
0.00349807
0.00349806
0.00349808
0.00349807
0.00350858
0.00352086
0.00352571
0.00351616
0.00352796
0.00350574
0.00351634
0.00349986
0.00350483
0.00350858
0.00352576
0.0035212
0.00351619
0.003528
0.00351637
0.00350605
0.00352681
0.00352685
0.00351328
0.00350567
0.00350565
0.00348158
0.00349572
0.00349546
0.00347978
0.00349282
0.00347878
0.00348155
0.00349573
0.00349549
0.00347974
0.00348913
0.00348912
0.00348913
0.0034618
0.00346176
0.00346172
0.00346175
0.0034794
0.00349426
0.00348791
0.00347874
0.0034928
0.00348007
0.00347872
0.00349294
0.00347893
0.0034794
0.00348798
0.00349445
0.00347881
0.00349283
0.00347876
0.00347987
0.00349598
0.00349605
0.00347745
0.00348051
0.00348049
0.00343954
0.00345434
0.00345512
0.00343844
0.00345315
0.00343746
0.00343947
0.00345439
0.00345513
0.00343837
0.00345185
0.0034518
0.00345183
0.00341905
0.00341903
0.00341901
0.00341902
0.00343829
0.00345403
0.00345018
0.00343965
0.00345308
0.00343885
0.00343969
0.00345314
0.0034375
0.00343824
0.00345014
0.00345411
0.00343969
0.00345302
0.00343968
0.00343818
0.00345457
0.0034546
0.00343706
0.00343868
0.00343869
0.00339308
0.00340969
0.00341101
0.00339165
0.00340892
0.00339113
0.00339305
0.00340968
0.00341111
0.00339164
0.00340728
0.00340726
0.00340727
0.00337112
0.0033711
0.0033711
0.00337111
0.00339196
0.00340949
0.00340577
0.0033939
0.00340901
0.00339231
0.00339389
0.00340898
0.00339113
0.00339195
0.00340576
0.00340929
0.00339389
0.00340898
0.00339388
0.00339222
0.0034097
0.00340974
0.00339077
0.00339179
0.00339178
0.00334404
0.00336116
0.00336244
0.0033429
0.00336078
0.00334264
0.00334408
0.00336117
0.00336245
0.00334293
0.00335899
0.00335896
0.00335898
0.00332273
0.00332272
0.00332271
0.00332273
0.00334353
0.0033612
0.00335757
0.00334551
0.00336087
0.00334381
0.0033455
0.00336075
0.00334258
0.0033435
0.00335756
0.00336113
0.00334546
0.00336085
0.00334548
0.00334358
0.00336123
0.00336118
0.00334235
0.00334299
0.003343
0.00329539
0.0033126
0.00331363
0.00329458
0.00331234
0.00329432
0.00329543
0.00331258
0.00331349
0.00329458
0.00331067
0.00331067
0.00331069
0.00327468
0.00327465
0.00327466
0.00327468
0.0032952
0.00331257
0.0033094