/*--------------------------------*- C++ -*----------------------------------*\
| =========                 |                                                 |
| \\      /  F ield         | OpenFOAM: The Open Source CFD Toolbox           |
|  \\    /   O peration     | Version:  v1906                                 |
|   \\  /    A nd           | Web:      www.OpenFOAM.com                      |
|    \\/     M anipulation  |                                                 |
\*---------------------------------------------------------------------------*/
FoamFile
{
    version     2.0;
    format      ascii;
    class       volScalarField;
    location    "225";
    object      epsilon;
}
// * * * * * * * * * * * * * * * * * * * * * * * * * * * * * * * * * * * * * //

dimensions      [0 2 -3 0 0 0 0];


internalField   nonuniform List<scalar> 
171728
(
8.17882e-09
4.75555e-09
4.3581e-09
4.92432e-09
8.09402e-09
4.36477e-09
4.18299e-09
4.47069e-09
8.16142e-09
4.0122e-09
4.13367e-09
4.09119e-09
8.23834e-09
3.71004e-09
4.17904e-09
3.77117e-09
8.32738e-09
3.45402e-09
4.36901e-09
3.50344e-09
8.42826e-09
3.24604e-09
4.52666e-09
3.26579e-09
8.54396e-09
3.08998e-09
4.49954e-09
3.06228e-09
8.67222e-09
2.98513e-09
4.13113e-09
2.89226e-09
8.81218e-09
2.92479e-09
3.80392e-09
2.74432e-09
8.96219e-09
2.90668e-09
3.59229e-09
2.6261e-09
9.12163e-09
2.9269e-09
3.40957e-09
2.54876e-09
9.28807e-09
2.99145e-09
3.26133e-09
2.51152e-09
9.46101e-09
3.10385e-09
3.23702e-09
2.51204e-09
9.64116e-09
3.27855e-09
3.38051e-09
2.56714e-09
9.8303e-09
3.54065e-09
3.59406e-09
2.70738e-09
1.00286e-08
3.94096e-09
3.89651e-09
2.96601e-09
1.02364e-08
4.51889e-09
4.45091e-09
3.50331e-09
1.04583e-08
5.27389e-09
5.29279e-09
4.23718e-09
1.06887e-08
6.55926e-09
6.52119e-09
5.86046e-09
1.09368e-08
8.4414e-09
8.34365e-09
8.22021e-09
1.12023e-08
1.09227e-08
1.09896e-08
1.23973e-08
1.14969e-08
1.45391e-08
1.4569e-08
1.9721e-08
1.18275e-08
1.98326e-08
1.96203e-08
3.46147e-08
1.22084e-08
2.73412e-08
2.66356e-08
4.73899e-08
1.2659e-08
3.54654e-08
3.72237e-08
8.57062e-08
1.32106e-08
4.75885e-08
4.62606e-08
1.08618e-07
1.38897e-08
6.38549e-08
6.4718e-08
1.8723e-07
1.4697e-08
7.91448e-08
7.94598e-08
2.2917e-07
1.57818e-08
1.00159e-07
1.00001e-07
2.99025e-07
1.71546e-08
1.25035e-07
1.25473e-07
3.83014e-07
1.8839e-08
1.52018e-07
1.52378e-07
4.62984e-07
2.09951e-08
1.83205e-07
1.83535e-07
5.38653e-07
2.36232e-08
2.16893e-07
2.1743e-07
6.10376e-07
2.70116e-08
2.5405e-07
2.54359e-07
6.74109e-07
3.09795e-08
2.95361e-07
2.94428e-07
7.30888e-07
3.60989e-08
3.38181e-07
3.35532e-07
7.81942e-07
4.2029e-08
3.84008e-07
3.82843e-07
8.2872e-07
4.94231e-08
4.31094e-07
4.27905e-07
8.69995e-07
5.81316e-08
4.78735e-07
4.77212e-07
9.08692e-07
6.83252e-08
5.28609e-07
5.24339e-07
9.43651e-07
7.99061e-08
5.7705e-07
5.74555e-07
9.76748e-07
9.32713e-08
6.22621e-07
6.21453e-07
1.00795e-06
1.08597e-07
6.68525e-07
6.67212e-07
1.03402e-06
1.25456e-07
7.09126e-07
7.11032e-07
1.05979e-06
1.4465e-07
7.50589e-07
7.52195e-07
1.08006e-06
1.64474e-07
7.8415e-07
7.84475e-07
1.09918e-06
1.86918e-07
8.19152e-07
8.19331e-07
1.12068e-06
2.19115e-07
8.62995e-07
8.62957e-07
1.15604e-06
2.47035e-07
8.84533e-07
8.84364e-07
1.17129e-06
2.57952e-07
8.8404e-07
8.84007e-07
1.15918e-06
2.57677e-07
8.68354e-07
8.68402e-07
1.12754e-06
2.59538e-07
8.63242e-07
8.63356e-07
1.10687e-06
2.81846e-07
8.77847e-07
8.7797e-07
1.11228e-06
3.27885e-07
9.1137e-07
9.11479e-07
1.14223e-06
3.87905e-07
9.58593e-07
9.58703e-07
1.19674e-06
4.39164e-07
9.97983e-07
9.9809e-07
1.24662e-06
4.69586e-07
1.0215e-06
1.0216e-06
1.27852e-06
4.83894e-07
1.03288e-06
1.03297e-06
1.29527e-06
4.89667e-07
1.0377e-06
1.03779e-06
1.30277e-06
4.91835e-07
1.03967e-06
1.03976e-06
1.30599e-06
4.92489e-07
1.04027e-06
1.04036e-06
1.30711e-06
4.92535e-07
1.04027e-06
1.04037e-06
1.30723e-06
4.92571e-07
1.04031e-06
1.04041e-06
1.30715e-06
4.9261e-07
1.0404e-06
1.04049e-06
1.30742e-06
4.92571e-07
1.04031e-06
1.0404e-06
1.30712e-06
4.92584e-07
1.04035e-06
1.04045e-06
1.30728e-06
4.92579e-07
1.04033e-06
1.04043e-06
1.30729e-06
4.92575e-07
1.04033e-06
1.04043e-06
1.30726e-06
4.92575e-07
1.04033e-06
1.04042e-06
1.30729e-06
4.92575e-07
1.04033e-06
1.04043e-06
1.30727e-06
4.92572e-07
1.04033e-06
1.04043e-06
1.30724e-06
4.92571e-07
1.04033e-06
1.04042e-06
1.30734e-06
4.9257e-07
1.04033e-06
1.04043e-06
1.3072e-06
4.92568e-07
1.04033e-06
1.04042e-06
1.30726e-06
4.92567e-07
1.04033e-06
1.04043e-06
1.30734e-06
4.92566e-07
1.04033e-06
1.04043e-06
1.30729e-06
4.92564e-07
1.04033e-06
1.04042e-06
1.30722e-06
4.92563e-07
1.04033e-06
1.04042e-06
1.30723e-06
4.92564e-07
1.04033e-06
1.04042e-06
1.30733e-06
4.92565e-07
1.04033e-06
1.04042e-06
1.30729e-06
4.92565e-07
1.04033e-06
1.04042e-06
1.30723e-06
4.92564e-07
1.04033e-06
1.04042e-06
1.30723e-06
4.92563e-07
1.04033e-06
1.04042e-06
1.30734e-06
4.92561e-07
1.04033e-06
1.04042e-06
1.30724e-06
4.9256e-07
1.04033e-06
1.04042e-06
1.30725e-06
4.9256e-07
1.04033e-06
1.04043e-06
1.30733e-06
4.9256e-07
1.04033e-06
1.04043e-06
1.30725e-06
4.92561e-07
1.04034e-06
1.04043e-06
1.30717e-06
4.92563e-07
1.04035e-06
1.04044e-06
1.30722e-06
4.92565e-07
1.04036e-06
1.04045e-06
1.30726e-06
4.92568e-07
1.04038e-06
1.04047e-06
1.30726e-06
4.92574e-07
1.04041e-06
1.0405e-06
1.30724e-06
4.92572e-07
1.04045e-06
1.04054e-06
1.30723e-06
4.9201e-07
1.04014e-06
1.04022e-06
1.30693e-06
4.72662e-07
9.81427e-07
9.81427e-07
1.26269e-06
4.8022e-09
4.29121e-09
4.23901e-09
4.88751e-09
4.12115e-09
4.18795e-09
8.33023e-09
8.38669e-09
8.41076e-09
8.34922e-09
4.19589e-09
4.1684e-09
4.81032e-09
3.75814e-09
4.23409e-09
4.95422e-09
4.77199e-09
4.38098e-09
4.91884e-09
4.84484e-09
4.59634e-09
4.52806e-09
4.85939e-09
4.47137e-09
4.80878e-09
4.75511e-09
4.48837e-09
4.4679e-09
5.23013e-09
4.46153e-09
4.93991e-09
4.78137e-09
4.35872e-09
4.76594e-09
4.21886e-09
4.47573e-09
4.53506e-09
4.34407e-09
4.00319e-09
4.49111e-09
4.42844e-09
4.2003e-09
4.15287e-09
4.4394e-09
4.09474e-09
4.38184e-09
4.37384e-09
4.08494e-09
4.11183e-09
4.84212e-09
4.09575e-09
4.56791e-09
4.29826e-09
3.96497e-09
4.37708e-09
4.13416e-09
4.10926e-09
4.15069e-09
3.97155e-09
3.67855e-09
4.1104e-09
4.06892e-09
3.8653e-09
3.84356e-09
4.06688e-09
3.76657e-09
3.99189e-09
4.03076e-09
3.72518e-09
3.80714e-09
4.48266e-09
3.78072e-09
4.24418e-09
3.90777e-09
3.6689e-09
4.02894e-09
4.15789e-09
3.80255e-09
3.819e-09
3.65221e-09
3.3937e-09
3.79046e-09
3.77337e-09
3.58695e-09
3.56964e-09
3.74221e-09
3.48316e-09
3.64151e-09
3.73868e-09
3.40351e-09
3.54965e-09
4.17096e-09
3.51439e-09
3.96336e-09
3.62429e-09
3.45765e-09
3.73189e-09
4.31497e-09
3.54071e-09
3.53139e-09
3.37262e-09
3.1514e-09
3.52726e-09
3.50544e-09
3.36506e-09
3.33157e-09
3.4623e-09
3.24142e-09
3.32902e-09
3.49186e-09
3.12494e-09
3.33699e-09
3.89831e-09
3.29293e-09
3.71916e-09
3.42733e-09
3.31863e-09
3.48384e-09
4.50097e-09
3.32686e-09
3.28415e-09
3.1341e-09
2.93891e-09
3.31456e-09
3.28049e-09
3.17771e-09
3.15083e-09
3.22489e-09
3.0407e-09
3.06426e-09
3.29114e-09
2.9113e-09
3.16988e-09
3.66471e-09
3.12429e-09
3.52098e-09
3.2923e-09
3.16752e-09
3.27928e-09
4.53745e-09
3.15578e-09
3.07642e-09
2.92482e-09
2.75749e-09
3.13868e-09
3.11428e-09
3.03933e-09
3.02216e-09
3.0279e-09
2.87786e-09
2.86868e-09
3.13492e-09
2.76972e-09
3.04662e-09
3.47928e-09
3.00588e-09
3.36406e-09
3.14021e-09
2.9357e-09
3.12161e-09
4.22455e-09
3.03085e-09
2.90314e-09
2.74753e-09
2.62142e-09
3.01252e-09
2.9985e-09
2.9532e-09
2.9442e-09
2.86928e-09
2.74943e-09
2.74601e-09
3.02369e-09
2.69197e-09
2.97114e-09
3.32768e-09
2.93693e-09
3.22235e-09
2.92337e-09
2.80505e-09
3.0063e-09
3.8716e-09
2.95004e-09
2.75205e-09
2.61672e-09
2.52781e-09
2.93977e-09
2.93078e-09
2.91283e-09
2.90773e-09
2.74461e-09
2.65071e-09
2.6793e-09
2.95817e-09
2.6589e-09
2.93492e-09
3.18986e-09
2.90654e-09
3.10325e-09
2.79706e-09
2.69049e-09
2.93603e-09
3.64001e-09
2.91021e-09
2.62891e-09
2.52725e-09
2.45948e-09
2.90859e-09
2.90602e-09
2.91402e-09
2.91346e-09
2.64979e-09
2.58317e-09
2.65741e-09
2.93285e-09
2.6653e-09
2.93984e-09
3.07971e-09
2.9198e-09
3.03502e-09
2.68542e-09
2.58869e-09
2.9078e-09
3.45428e-09
2.91527e-09
2.54666e-09
2.46219e-09
2.42067e-09
2.9199e-09
2.92197e-09
2.95803e-09
2.96269e-09
2.58603e-09
2.55053e-09
2.67293e-09
2.94748e-09
2.71199e-09
2.98662e-09
3.02909e-09
2.97357e-09
3.03917e-09
2.58752e-09
2.5249e-09
2.92287e-09
3.29002e-09
2.96413e-09
2.50265e-09
2.43081e-09
2.42234e-09
2.97566e-09
2.98304e-09
3.0508e-09
3.06267e-09
2.56165e-09
2.5603e-09
2.73184e-09
3.00717e-09
2.80948e-09
3.08064e-09
3.05165e-09
3.07395e-09
3.10492e-09
2.53297e-09
2.52345e-09
2.9841e-09
3.23675e-09
3.06165e-09
2.49413e-09
2.4423e-09
2.47982e-09
3.0821e-09
3.09663e-09
3.20879e-09
3.2263e-09
2.58159e-09
2.6237e-09
2.84498e-09
3.11353e-09
2.97726e-09
3.24475e-09
3.13114e-09
3.23129e-09
3.23181e-09
2.54103e-09
2.58139e-09
3.09478e-09
3.3237e-09
3.21655e-09
2.53492e-09
2.51615e-09
2.60147e-09
3.25786e-09
3.27846e-09
3.44274e-09
3.46607e-09
2.66029e-09
2.76262e-09
3.02838e-09
3.29857e-09
3.2197e-09
3.48433e-09
3.2724e-09
3.47377e-09
3.41884e-09
2.61915e-09
2.71616e-09
3.26712e-09
3.54335e-09
3.44916e-09
2.65096e-09
2.66089e-09
2.8439e-09
3.51596e-09
3.5404e-09
3.7932e-09
3.8164e-09
2.82671e-09
3.00926e-09
3.29696e-09
3.55855e-09
3.56738e-09
3.83212e-09
3.48183e-09
3.82794e-09
3.69494e-09
2.77263e-09
2.96255e-09
3.5225e-09
3.80498e-09
3.78969e-09
2.87155e-09
2.94696e-09
3.27451e-09
3.9034e-09
3.93118e-09
4.30533e-09
4.37388e-09
3.1117e-09
3.57438e-09
3.67813e-09
3.9441e-09
4.10078e-09
4.3526e-09
3.79209e-09
4.36393e-09
4.1677e-09
3.06384e-09
3.41669e-09
3.89648e-09
4.29231e-09
4.31635e-09
3.33358e-09
3.42271e-09
4.05104e-09
4.46102e-09
4.53664e-09
5.07758e-09
5.00353e-09
3.75873e-09
4.04976e-09
4.25449e-09
4.51576e-09
4.84966e-09
5.13052e-09
4.31084e-09
5.03565e-09
4.85223e-09
3.58402e-09
4.20244e-09
4.4854e-09
5.06052e-09
5.03705e-09
3.9704e-09
4.3752e-09
5.24273e-09
5.34358e-09
5.24576e-09
6.18152e-09
6.22554e-09
4.31898e-09
5.63531e-09
5.11259e-09
5.36253e-09
5.96573e-09
6.26309e-09
5.09606e-09
6.23827e-09
5.99882e-09
4.47177e-09
5.48367e-09
5.28291e-09
6.17668e-09
6.19849e-09
5.34945e-09
5.66926e-09
7.49496e-09
6.51249e-09
6.55432e-09
7.87534e-09
7.88587e-09
6.05274e-09
7.73999e-09
6.29335e-09
6.60938e-09
7.61712e-09
7.94295e-09
6.37944e-09
7.86735e-09
7.70721e-09
5.97254e-09
7.79106e-09
6.56863e-09
7.86265e-09
7.82874e-09
7.52522e-09
8.55573e-09
1.1011e-08
8.48939e-09
8.47156e-09
1.00806e-08
1.01328e-08
8.7341e-09
1.11842e-08
8.24838e-09
8.43025e-09
9.89001e-09
1.01869e-08
8.16527e-09
1.01248e-08
9.79539e-09
8.56566e-09
1.1022e-08
8.29701e-09
1.00747e-08
1.00773e-08
1.07111e-08
1.20357e-08
1.81918e-08
1.0842e-08
1.09193e-08
1.37465e-08
1.36635e-08
1.23273e-08
1.83392e-08
1.06245e-08
1.11186e-08
1.33285e-08
1.37651e-08
1.0755e-08
1.35981e-08
1.35688e-08
1.26614e-08
1.84408e-08
1.10457e-08
1.36338e-08
1.371e-08
1.8774e-08
1.97131e-08
2.84897e-08
1.46241e-08
1.46414e-08
1.84365e-08
1.87839e-08
1.98406e-08
3.10751e-08
1.42162e-08
1.47216e-08
1.8187e-08
1.82814e-08
1.42766e-08
1.86526e-08
1.82807e-08
1.98373e-08
2.83876e-08
1.44441e-08
1.81466e-08
1.87048e-08
2.9635e-08
3.27193e-08
4.28935e-08
2.01031e-08
1.99345e-08
2.41974e-08
2.50426e-08
3.37912e-08
4.56197e-08
1.99139e-08
1.97155e-08
2.39306e-08
2.52388e-08
1.99975e-08
2.50225e-08
2.43397e-08
3.10712e-08
4.84873e-08
2.04188e-08
2.51374e-08
2.44712e-08
4.47127e-08
4.57179e-08
8.31914e-08
2.59773e-08
2.75009e-08
3.53945e-08
3.36904e-08
5.27878e-08
7.25876e-08
2.55849e-08
2.67828e-08
3.49807e-08
3.39226e-08
2.57646e-08
3.34289e-08
3.39616e-08
5.26368e-08
7.03044e-08
2.59514e-08
3.37052e-08
3.4338e-08
7.34615e-08
9.18184e-08
9.87751e-08
3.76898e-08
3.55798e-08
4.3096e-08
4.32253e-08
7.66149e-08
1.00343e-07
3.74234e-08
3.74395e-08
4.28887e-08
4.43231e-08
3.7394e-08
4.34439e-08
4.33076e-08
8.08162e-08
1.09242e-07
3.76543e-08
4.40686e-08
4.36482e-08
1.05279e-07
1.04885e-07
1.75544e-07
4.66273e-08
4.74913e-08
6.05683e-08
6.05896e-08
1.10702e-07
1.72838e-07
4.63658e-08
4.65534e-08
5.98834e-08
5.97064e-08
4.5674e-08
6.04315e-08
5.98929e-08
1.12778e-07
1.58493e-07
4.61513e-08
5.94516e-08
6.0262e-08
1.66302e-07
1.86836e-07
2.14488e-07
6.4067e-08
6.38583e-08
7.482e-08
7.46767e-08
1.83774e-07
2.13292e-07
6.33845e-08
6.4917e-08
7.47954e-08
7.6251e-08
6.45334e-08
7.48152e-08
7.48372e-08
1.78417e-07
2.27665e-07
6.47673e-08
7.59216e-08
7.52433e-08
2.21207e-07
2.25307e-07
2.82879e-07
7.91312e-08
7.90784e-08
9.42392e-08
9.41645e-08
2.24235e-07
2.833e-07
7.91694e-08
7.98916e-08
9.37908e-08
9.46946e-08
7.9031e-08
9.42934e-08
9.37182e-08
2.3493e-07
2.79776e-07
7.94062e-08
9.41394e-08
9.42346e-08
2.82531e-07
2.98452e-07
3.68059e-07
9.99894e-08
9.99952e-08
1.18669e-07
1.18697e-07
2.99374e-07
3.6873e-07
9.95787e-08
1.00575e-07
1.18669e-07
1.19451e-07
9.91665e-08
1.18849e-07
1.18016e-07
2.96758e-07
3.69723e-07
9.97634e-08
1.18864e-07
1.18529e-07
3.65697e-07
3.85207e-07
4.45702e-07
1.25096e-07
1.2494e-07
1.4464e-07
1.4508e-07
3.85595e-07
4.46702e-07
1.24977e-07
1.25942e-07
1.4413e-07
1.45861e-07
1.2455e-07
1.44775e-07
1.4444e-07
3.8669e-07
4.48327e-07
1.25103e-07
1.45471e-07
1.44904e-07
4.47266e-07
4.61535e-07
5.24377e-07
1.51691e-07
1.52259e-07
1.75218e-07
1.74422e-07
4.62608e-07
5.23198e-07
1.51472e-07
1.5296e-07
1.75598e-07
1.75996e-07
1.51585e-07
1.75038e-07
1.74328e-07
4.64116e-07
5.24013e-07
1.5192e-07
1.75283e-07
1.7491e-07
5.22303e-07
5.40749e-07
5.94119e-07
1.83334e-07
1.82539e-07
2.0786e-07
2.08589e-07
5.39497e-07
5.9477e-07
1.83365e-07
1.84037e-07
2.0713e-07
2.08957e-07
1.82359e-07
2.08577e-07
2.08063e-07
5.40104e-07
5.957e-07
1.83051e-07
2.08715e-07
2.08274e-07
5.95286e-07
6.09051e-07
6.60726e-07
2.165e-07
2.16999e-07
2.45066e-07
2.44441e-07
6.096e-07
6.58681e-07
2.16192e-07
2.17826e-07
2.45572e-07
2.46094e-07
2.16893e-07
2.43911e-07
2.44473e-07
6.10816e-07
6.59839e-07
2.16955e-07
2.4503e-07
2.44696e-07
6.5971e-07
6.75505e-07
7.18284e-07
2.5508e-07
2.54787e-07
2.83894e-07
2.84625e-07
6.73515e-07
7.19098e-07
2.55274e-07
2.5544e-07
2.83903e-07
2.84317e-07
2.54202e-07
2.85154e-07
2.84116e-07
6.73966e-07
7.17452e-07
2.54469e-07
2.83865e-07
2.83965e-07
7.17838e-07
7.31109e-07
7.70774e-07
2.93648e-07
2.94288e-07
3.26684e-07
3.26699e-07
7.3209e-07
7.70274e-07
2.93922e-07
2.94923e-07
3.26536e-07
3.27101e-07
2.94263e-07
3.27019e-07
3.2585e-07
7.30805e-07
7.69151e-07
2.93915e-07
3.25239e-07
3.25247e-07
7.69431e-07
7.83468e-07
8.1716e-07
3.3802e-07
3.3813e-07
3.70197e-07
3.71154e-07
7.82707e-07
8.15834e-07
3.37911e-07
3.37494e-07
3.71657e-07
3.71124e-07
3.36763e-07
3.72612e-07
3.7112e-07
7.81219e-07
8.16909e-07
3.3619e-07
3.70562e-07
3.70482e-07
8.1724e-07
8.2819e-07
8.59222e-07
3.81261e-07
3.82121e-07
4.17247e-07
4.17759e-07
8.26825e-07
8.59051e-07
3.82834e-07
3.83164e-07
4.1794e-07
4.18045e-07
3.82759e-07
4.1893e-07
4.16726e-07
8.28805e-07
8.59186e-07
3.82086e-07
4.16751e-07
4.16445e-07
8.59478e-07
8.69774e-07
8.9655e-07
4.29354e-07
4.30385e-07
4.64471e-07
4.66189e-07
8.70252e-07
8.97962e-07
4.30383e-07
4.29463e-07
4.67393e-07
4.65798e-07
4.28374e-07
4.6709e-07
4.65362e-07
8.6931e-07
8.98229e-07
4.28256e-07
4.64649e-07
4.64931e-07
8.98649e-07
9.06309e-07
9.33332e-07
4.76425e-07
4.7726e-07
5.14166e-07
5.13044e-07
9.07101e-07
9.32386e-07
4.793e-07
4.78154e-07
5.15004e-07
5.13711e-07
4.77701e-07
5.15592e-07
5.14509e-07
9.08513e-07
9.33483e-07
4.77058e-07
5.12586e-07
5.13554e-07
9.34484e-07
9.42829e-07
9.66137e-07
5.26648e-07
5.26261e-07
5.61878e-07
5.64404e-07
9.42189e-07
9.66321e-07
5.27103e-07
5.25647e-07
5.63334e-07
5.63209e-07
5.26969e-07
5.6573e-07
5.63546e-07
9.42354e-07
9.66837e-07
5.25984e-07
5.61929e-07
5.62697e-07
9.67881e-07
9.74587e-07
9.97741e-07
5.73429e-07
5.75977e-07
6.09246e-07
6.10824e-07
9.7432e-07
9.95787e-07
5.75529e-07
5.75689e-07
6.12362e-07
6.11161e-07
5.75645e-07
6.10882e-07
6.12532e-07
9.75887e-07
9.97932e-07
5.74918e-07
6.10085e-07
6.11847e-07
9.99908e-07
1.00635e-06
1.0284e-06
6.21341e-07
6.22885e-07
6.57463e-07
6.57662e-07
1.00441e-06
1.02673e-06
6.24502e-07
6.22601e-07
6.59657e-07
6.5689e-07
6.24342e-07
6.57508e-07
6.57929e-07
1.00568e-06
1.02583e-06
6.23537e-07
6.5576e-07
6.57091e-07
1.02668e-06
1.03604e-06
1.05408e-06
6.69365e-07
6.68537e-07
7.03281e-07
7.0027e-07
1.03408e-06
1.05112e-06
6.7093e-07
6.68197e-07
7.02486e-07
7.00882e-07
6.69305e-07
6.99286e-07
7.02658e-07
1.03356e-06
1.05295e-06
6.68625e-07
7.00472e-07
7.02509e-07
1.0532e-06
1.0607e-06
1.07662e-06
7.13846e-07
7.10833e-07
7.44823e-07
7.42894e-07
1.05801e-06
1.07606e-06
7.12427e-07
7.11362e-07
7.42607e-07
7.42548e-07
7.12805e-07
7.39976e-07
7.42629e-07
1.05993e-06
1.07663e-06
7.12741e-07
7.42078e-07
7.42605e-07
1.07391e-06
1.0828e-06
1.0944e-06
7.54821e-07
7.53254e-07
7.79301e-07
7.78152e-07
1.08272e-06
1.09563e-06
7.52676e-07
7.52625e-07
7.77061e-07
7.77265e-07
7.52784e-07
7.76946e-07
7.77819e-07
1.08286e-06
1.0949e-06
7.52811e-07
7.77381e-07
7.78284e-07
1.09415e-06
1.099e-06
1.11294e-06
7.86143e-07
7.8504e-07
8.1012e-07
8.09567e-07
1.10036e-06
1.11436e-06
7.83744e-07
7.84281e-07
8.07803e-07
8.09366e-07
7.84456e-07
8.08912e-07
8.07742e-07
1.09964e-06
1.1139e-06
7.85034e-07
8.09133e-07
8.08126e-07
1.11317e-06
1.12069e-06
1.14875e-06
8.20111e-07
8.1979e-07
8.52923e-07
8.53076e-07
1.12202e-06
1.14937e-06
8.18052e-07
8.19789e-07
8.51751e-07
8.53607e-07
8.1774e-07
8.52823e-07
8.51489e-07
1.12163e-06
1.14934e-06
8.17964e-07
8.52855e-07
8.51365e-07
1.14822e-06
1.15647e-06
1.16847e-06
8.62812e-07
8.63053e-07
8.81528e-07
8.81791e-07
1.15701e-06
1.16876e-06
8.61923e-07
8.63642e-07
8.81091e-07
8.82169e-07
8.61908e-07
8.82101e-07
8.81933e-07
1.15703e-06
1.16887e-06
8.61714e-07
8.81927e-07
8.81672e-07
1.16886e-06
1.17076e-06
1.1579e-06
8.83994e-07
8.842e-07
8.85163e-07
8.85226e-07
1.17103e-06
1.15796e-06
8.83578e-07
8.84476e-07
8.84687e-07
8.8531e-07
8.84588e-07
8.85471e-07
8.85805e-07
1.17112e-06
1.15797e-06
8.84347e-07
8.8537e-07
8.8564e-07
1.15874e-06
1.15833e-06
1.12749e-06
8.8396e-07
8.83917e-07
8.72765e-07
8.72589e-07
1.15838e-06
1.12727e-06
8.83438e-07
8.83849e-07
8.72254e-07
8.72398e-07
8.84503e-07
8.72542e-07
8.73084e-07
1.15839e-06
1.12727e-06
8.84402e-07
8.72563e-07
8.73045e-07
1.128e-06
1.12707e-06
1.10566e-06
8.68658e-07
8.68442e-07
8.63286e-07
8.6304e-07
1.12684e-06
1.10535e-06
8.68154e-07
8.68281e-07
8.62826e-07
8.62986e-07
8.68838e-07
8.62869e-07
8.63225e-07
1.12685e-06
1.1055e-06
8.688e-07
8.62972e-07
8.63161e-07
1.10574e-06
1.10681e-06
1.10811e-06
8.63661e-07
8.63426e-07
8.73071e-07
8.72937e-07
1.10651e-06
1.1079e-06
8.63223e-07
8.63402e-07
8.72751e-07
8.73009e-07
8.6357e-07
8.7274e-07
8.72989e-07
1.10665e-06
1.10811e-06
8.63494e-07
8.72868e-07
8.72856e-07
1.10809e-06
1.11231e-06
1.133e-06
8.7814e-07
8.78043e-07
9.01251e-07
9.01224e-07
1.11213e-06
1.1329e-06
8.77864e-07
8.78135e-07
9.01049e-07
9.01336e-07
8.78085e-07
9.01065e-07
9.01284e-07
1.11233e-06
1.13309e-06
8.77942e-07
9.01175e-07
9.01144e-07
1.13304e-06
1.14218e-06
1.18495e-06
9.11547e-07
9.11528e-07
9.46899e-07
9.46907e-07
1.14209e-06
1.18487e-06
9.11363e-07
9.11632e-07
9.46753e-07
9.46983e-07
9.116e-07
9.4675e-07
9.46976e-07
1.14227e-06
1.18502e-06
9.11467e-07
9.4686e-07
9.46858e-07
1.18503e-06
1.19667e-06
1.23704e-06
9.58742e-07
9.58755e-07
9.89758e-07
9.89783e-07
1.19659e-06
1.23696e-06
9.5861e-07
9.58823e-07
9.89644e-07
9.89831e-07
9.58825e-07
9.89619e-07
9.8984e-07
1.19673e-06
1.23709e-06
9.58709e-07
9.89727e-07
9.8973e-07
1.23712e-06
1.24655e-06
1.27198e-06
9.98121e-07
9.98147e-07
1.01711e-06
1.01714e-06
1.24647e-06
1.2719e-06
9.98014e-07
9.98192e-07
1.017e-06
1.01718e-06
9.98205e-07
1.01698e-06
1.01719e-06
1.24658e-06
1.27201e-06
9.98095e-07
1.01708e-06
1.01709e-06
1.27205e-06
1.27845e-06
1.29111e-06
1.02163e-06
1.02166e-06
1.03097e-06
1.03099e-06
1.27837e-06
1.29104e-06
1.02153e-06
1.0217e-06
1.03086e-06
1.03104e-06
1.02171e-06
1.03085e-06
1.03105e-06
1.27848e-06
1.29115e-06
1.02161e-06
1.03094e-06
1.03095e-06
1.2912e-06
1.29519e-06
1.29986e-06
1.033e-06
1.03302e-06
1.03697e-06
1.037e-06
1.29512e-06
1.29979e-06
1.03289e-06
1.03306e-06
1.03686e-06
1.03704e-06
1.03308e-06
1.03686e-06
1.03706e-06
1.29523e-06
1.2999e-06
1.03298e-06
1.03695e-06
1.03696e-06
1.29995e-06
1.30268e-06
1.30363e-06
1.03781e-06
1.03784e-06
1.03945e-06
1.03948e-06
1.30262e-06
1.30357e-06
1.03771e-06
1.03788e-06
1.03934e-06
1.03952e-06
1.0379e-06
1.03934e-06
1.03954e-06
1.30273e-06
1.30367e-06
1.0378e-06
1.03943e-06
1.03944e-06
1.30372e-06
1.3059e-06
1.305e-06
1.03978e-06
1.03981e-06
1.04031e-06
1.04034e-06
1.30584e-06
1.30494e-06
1.03967e-06
1.03985e-06
1.04021e-06
1.04038e-06
1.03987e-06
1.0402e-06
1.0404e-06
1.30594e-06
1.30504e-06
1.03977e-06
1.0403e-06
1.0403e-06
1.30509e-06
1.30702e-06
1.30519e-06
1.04038e-06
1.04041e-06
1.04041e-06
1.04044e-06
1.30696e-06
1.30513e-06
1.04028e-06
1.04045e-06
1.0403e-06
1.04048e-06
1.04047e-06
1.0403e-06
1.0405e-06
1.30706e-06
1.30523e-06
1.04037e-06
1.04039e-06
1.0404e-06
1.30528e-06
1.30714e-06
1.30504e-06
1.04038e-06
1.04041e-06
1.04038e-06
1.04041e-06
1.30707e-06
1.30498e-06
1.04028e-06
1.04045e-06
1.04027e-06
1.04045e-06
1.04048e-06
1.04027e-06
1.04047e-06
1.30718e-06
1.30508e-06
1.04037e-06
1.04036e-06
1.04037e-06
1.30513e-06
1.30706e-06
1.30539e-06
1.04042e-06
1.04045e-06
1.04051e-06
1.04054e-06
1.307e-06
1.30532e-06
1.04031e-06
1.04049e-06
1.0404e-06
1.04058e-06
1.04051e-06
1.0404e-06
1.0406e-06
1.3071e-06
1.30543e-06
1.04041e-06
1.04049e-06
1.0405e-06
1.30548e-06
1.30733e-06
1.30514e-06
1.0405e-06
1.04053e-06
1.04043e-06
1.04046e-06
1.30727e-06
1.30506e-06
1.0404e-06
1.04057e-06
1.04032e-06
1.0405e-06
1.04059e-06
1.04032e-06
1.04052e-06
1.30737e-06
1.30517e-06
1.04049e-06
1.04041e-06
1.04042e-06
1.30522e-06
1.30703e-06
1.30519e-06
1.04042e-06
1.04045e-06
1.04044e-06
1.04047e-06
1.30696e-06
1.30513e-06
1.04031e-06
1.04049e-06
1.04033e-06
1.04051e-06
1.04051e-06
1.04033e-06
1.04054e-06
1.30707e-06
1.30524e-06
1.04041e-06
1.04043e-06
1.04043e-06
1.30529e-06
1.30717e-06
1.30528e-06
1.04046e-06
1.04049e-06
1.04046e-06
1.04049e-06
1.30712e-06
1.3052e-06
1.04035e-06
1.04053e-06
1.04035e-06
1.04053e-06
1.04055e-06
1.04035e-06
1.04055e-06
1.30722e-06
1.30531e-06
1.04045e-06
1.04044e-06
1.04045e-06
1.30536e-06
1.30721e-06
1.30514e-06
1.04045e-06
1.04047e-06
1.04043e-06
1.04046e-06
1.30714e-06
1.30509e-06
1.04034e-06
1.04051e-06
1.04032e-06
1.0405e-06
1.04054e-06
1.04032e-06
1.04052e-06
1.30724e-06
1.3052e-06
1.04043e-06
1.04041e-06
1.04042e-06
1.30525e-06
1.30716e-06
1.30527e-06
1.04044e-06
1.04047e-06
1.04045e-06
1.04048e-06
1.30711e-06
1.3052e-06
1.04033e-06
1.04051e-06
1.04035e-06
1.04052e-06
1.04053e-06
1.04034e-06
1.04054e-06
1.30721e-06
1.30531e-06
1.04043e-06
1.04043e-06
1.04044e-06
1.30536e-06
1.3072e-06
1.30518e-06
1.04044e-06
1.04047e-06
1.04044e-06
1.04047e-06
1.30713e-06
1.30513e-06
1.04033e-06
1.04051e-06
1.04033e-06
1.0405e-06
1.04053e-06
1.04033e-06
1.04053e-06
1.30724e-06
1.30523e-06
1.04043e-06
1.04042e-06
1.04043e-06
1.30528e-06
1.30718e-06
1.30523e-06
1.04044e-06
1.04047e-06
1.04044e-06
1.04047e-06
1.30713e-06
1.30515e-06
1.04034e-06
1.04051e-06
1.04034e-06
1.04051e-06
1.04054e-06
1.04033e-06
1.04053e-06
1.30723e-06
1.30526e-06
1.04043e-06
1.04042e-06
1.04043e-06
1.30531e-06
1.30716e-06
1.30524e-06
1.04044e-06
1.04047e-06
1.04044e-06
1.04047e-06
1.30708e-06
1.3052e-06
1.04033e-06
1.04051e-06
1.04033e-06
1.04051e-06
1.04053e-06
1.04033e-06
1.04053e-06
1.30718e-06
1.3053e-06
1.04043e-06
1.04042e-06
1.04043e-06
1.30535e-06
1.30723e-06
1.30514e-06
1.04044e-06
1.04047e-06
1.04044e-06
1.04047e-06
1.30719e-06
1.30508e-06
1.04033e-06
1.04051e-06
1.04033e-06
1.04051e-06
1.04053e-06
1.04033e-06
1.04053e-06
1.30728e-06
1.30519e-06
1.04043e-06
1.04042e-06
1.04043e-06
1.30523e-06
1.3071e-06
1.30526e-06
1.04044e-06
1.04047e-06
1.04044e-06
1.04047e-06
1.30705e-06
1.30518e-06
1.04033e-06
1.04051e-06
1.04033e-06
1.04051e-06
1.04053e-06
1.04033e-06
1.04053e-06
1.30716e-06
1.30528e-06
1.04043e-06
1.04042e-06
1.04043e-06
1.30534e-06
1.30719e-06
1.30525e-06
1.04044e-06
1.04047e-06
1.04044e-06
1.04047e-06
1.30711e-06
1.3052e-06
1.04033e-06
1.04051e-06
1.04033e-06
1.04051e-06
1.04053e-06
1.04033e-06
1.04053e-06
1.3072e-06
1.30532e-06
1.04043e-06
1.04042e-06
1.04043e-06
1.30536e-06
1.30724e-06
1.30516e-06
1.04044e-06
1.04047e-06
1.04043e-06
1.04047e-06
1.30719e-06
1.30511e-06
1.04033e-06
1.04051e-06
1.04033e-06
1.04051e-06
1.04053e-06
1.04033e-06
1.04053e-06
1.30728e-06
1.30524e-06
1.04043e-06
1.04042e-06
1.04043e-06
1.30528e-06
1.30715e-06
1.30517e-06
1.04044e-06
1.04047e-06
1.04043e-06
1.04046e-06
1.30711e-06
1.3051e-06
1.04033e-06
1.04051e-06
1.04032e-06
1.0405e-06
1.04054e-06
1.04032e-06
1.04053e-06
1.30723e-06
1.3052e-06
1.04043e-06
1.04041e-06
1.04043e-06
1.30524e-06
1.30711e-06
1.30526e-06
1.04043e-06
1.04047e-06
1.04043e-06
1.04046e-06
1.30706e-06
1.30515e-06
1.04033e-06
1.04051e-06
1.04033e-06
1.0405e-06
1.04053e-06
1.04032e-06
1.04053e-06
1.30717e-06
1.30525e-06
1.04043e-06
1.04042e-06
1.04043e-06
1.3053e-06
1.30719e-06
1.30525e-06
1.04043e-06
1.04047e-06
1.04043e-06
1.04046e-06
1.30708e-06
1.30521e-06
1.04033e-06
1.0405e-06
1.04032e-06
1.0405e-06
1.04053e-06
1.04032e-06
1.04053e-06
1.30718e-06
1.30531e-06
1.04043e-06
1.04041e-06
1.04043e-06
1.30536e-06
1.30723e-06
1.30517e-06
1.04043e-06
1.04047e-06
1.04043e-06
1.04046e-06
1.30716e-06
1.30516e-06
1.04033e-06
1.0405e-06
1.04032e-06
1.0405e-06
1.04054e-06
1.04032e-06
1.04052e-06
1.30726e-06
1.30529e-06
1.04044e-06
1.04041e-06
1.04042e-06
1.3053e-06
1.30717e-06
1.30518e-06
1.04044e-06
1.04047e-06
1.04043e-06
1.04046e-06
1.30717e-06
1.30507e-06
1.04033e-06
1.04051e-06
1.04032e-06
1.0405e-06
1.04053e-06
1.04032e-06
1.04052e-06
1.30728e-06
1.30519e-06
1.04043e-06
1.04041e-06
1.04042e-06
1.30524e-06
1.30714e-06
1.30517e-06
1.04044e-06
1.04047e-06
1.04042e-06
1.04046e-06
1.30705e-06
1.30515e-06
1.04033e-06
1.04051e-06
1.04032e-06
1.0405e-06
1.04053e-06
1.04032e-06
1.04053e-06
1.30719e-06
1.30521e-06
1.04043e-06
1.04041e-06
1.04042e-06
1.30531e-06
1.30709e-06
1.30532e-06
1.04043e-06
1.04046e-06
1.04043e-06
1.04046e-06
1.30707e-06
1.30521e-06
1.04033e-06
1.0405e-06
1.04032e-06
1.04049e-06
1.04053e-06
1.04032e-06
1.04052e-06
1.30716e-06
1.30528e-06
1.04043e-06
1.04041e-06
1.04042e-06
1.30536e-06
1.30727e-06
1.30515e-06
1.04044e-06
1.04047e-06
1.04041e-06
1.04045e-06
1.30718e-06
1.30513e-06
1.04033e-06
1.04051e-06
1.04031e-06
1.04049e-06
1.04053e-06
1.04031e-06
1.04052e-06
1.30722e-06
1.30522e-06
1.04043e-06
1.0404e-06
1.04041e-06
1.30526e-06
1.30713e-06
1.30524e-06
1.04043e-06
1.04046e-06
1.04042e-06
1.04045e-06
1.3071e-06
1.30519e-06
1.04033e-06
1.0405e-06
1.04031e-06
1.04049e-06
1.04053e-06
1.04031e-06
1.04051e-06
1.30716e-06
1.30534e-06
1.04043e-06
1.0404e-06
1.04041e-06
1.3053e-06
1.30722e-06
1.30513e-06
1.04044e-06
1.04047e-06
1.04041e-06
1.04044e-06
1.30715e-06
1.3051e-06
1.04033e-06
1.04051e-06
1.0403e-06
1.04048e-06
1.04053e-06
1.0403e-06
1.04051e-06
1.30728e-06
1.30519e-06
1.04043e-06
1.04039e-06
1.0404e-06
1.30535e-06
1.30713e-06
1.30515e-06
1.04044e-06
1.04047e-06
1.0404e-06
1.04044e-06
1.3071e-06
1.30509e-06
1.04033e-06
1.04051e-06
1.0403e-06
1.04048e-06
1.04054e-06
1.04029e-06
1.0405e-06
1.30719e-06
1.30525e-06
1.04043e-06
1.04039e-06
1.04039e-06
1.30524e-06
1.30708e-06
1.30527e-06
1.04044e-06
1.04047e-06
1.0404e-06
1.04043e-06
1.30703e-06
1.30522e-06
1.04033e-06
1.04051e-06
1.04029e-06
1.04047e-06
1.04054e-06
1.04029e-06
1.04049e-06
1.30718e-06
1.30528e-06
1.04043e-06
1.04038e-06
1.04039e-06
1.30521e-06
1.3072e-06
1.30522e-06
1.04045e-06
1.04048e-06
1.04039e-06
1.04042e-06
1.30716e-06
1.30515e-06
1.04034e-06
1.04052e-06
1.04028e-06
1.04046e-06
1.04054e-06
1.04028e-06
1.04048e-06
1.30725e-06
1.30521e-06
1.04043e-06
1.04037e-06
1.04038e-06
1.30529e-06
1.30721e-06
1.30516e-06
1.04045e-06
1.04049e-06
1.04038e-06
1.04041e-06
1.30715e-06
1.3051e-06
1.04035e-06
1.04053e-06
1.04027e-06
1.04045e-06
1.04055e-06
1.04027e-06
1.04047e-06
1.3072e-06
1.30521e-06
1.04044e-06
1.04036e-06
1.04037e-06
1.30531e-06
1.30715e-06
1.30516e-06
1.04047e-06
1.0405e-06
1.04036e-06
1.0404e-06
1.30708e-06
1.30512e-06
1.04036e-06
1.04054e-06
1.04026e-06
1.04044e-06
1.04056e-06
1.04025e-06
1.04046e-06
1.30717e-06
1.30524e-06
1.04045e-06
1.04035e-06
1.04035e-06
1.30529e-06
1.30713e-06
1.30521e-06
1.04049e-06
1.04052e-06
1.04035e-06
1.04038e-06
1.3071e-06
1.30511e-06
1.04038e-06
1.04056e-06
1.04025e-06
1.04042e-06
1.04058e-06
1.04024e-06
1.04044e-06
1.30719e-06
1.30527e-06
1.04047e-06
1.04033e-06
1.04033e-06
1.30528e-06
1.30716e-06
1.3052e-06
1.04051e-06
1.04054e-06
1.04034e-06
1.04037e-06
1.30707e-06
1.30515e-06
1.04041e-06
1.04059e-06
1.04024e-06
1.04042e-06
1.04061e-06
1.04023e-06
1.04043e-06
1.30723e-06
1.30526e-06
1.0405e-06
1.04032e-06
1.04032e-06
1.3053e-06
1.30717e-06
1.30495e-06
1.04056e-06
1.04059e-06
1.03993e-06
1.03996e-06
1.30712e-06
1.30487e-06
1.04045e-06
1.04063e-06
1.03983e-06
1.04e-06
1.04065e-06
1.03982e-06
1.04002e-06
1.30724e-06
1.30499e-06
1.04054e-06
1.03991e-06
1.03991e-06
1.3051e-06
1.3068e-06
1.28514e-06
1.04025e-06
1.04028e-06
1.01784e-06
1.01786e-06
1.30675e-06
1.28509e-06
1.04014e-06
1.04032e-06
1.01781e-06
1.01782e-06
1.04034e-06
1.01785e-06
1.0179e-06
1.30686e-06
1.28515e-06
1.04022e-06
1.01786e-06
1.01786e-06
1.2852e-06
1.26263e-06
9.81373e-07
9.8139e-07
1.26261e-06
9.81366e-07
9.81353e-07
4.72683e-07
4.72658e-07
4.72701e-07
9.81428e-07
1.26265e-06
9.81419e-07
2.25503e-08
3.90878e-09
1.4552e-08
1.45586e-08
1.49802e-09
4.25912e-09
1.11365e-08
7.99497e-09
1.65128e-09
3.78839e-09
8.27959e-09
1.20299e-08
5.11793e-09
7.31938e-09
3.70307e-09
7.34649e-09
1.63586e-07
6.06655e-09
2.60185e-07
1.63634e-06
3.20836e-06
7.38104e-09
1.63749e-07
5.92528e-09
2.59684e-07
8.23045e-09
8.2454e-09
8.20441e-09
8.08429e-09
8.13443e-09
8.15595e-09
8.11668e-09
1.50191e-09
8.61131e-08
3.95817e-09
4.6628e-09
1.51683e-09
6.41662e-08
3.90535e-09
1.62692e-06
3.21362e-06
1.53678e-09
4.85245e-09
9.81793e-08
4.31092e-09
1.60337e-09
4.81522e-09
7.54847e-08
2.16854e-07
2.15647e-07
4.74694e-09
1.85612e-07
1.84508e-07
1.59039e-08
4.64441e-07
1.21372e-08
6.71078e-07
7.12642e-06
1.0154e-05
1.63266e-08
4.63073e-07
1.19473e-08
6.73281e-07
8.14788e-09
8.1746e-09
8.12952e-09
8.1455e-09
8.20134e-09
8.24293e-09
8.17919e-09