/*--------------------------------*- C++ -*----------------------------------*\
| =========                 |                                                 |
| \\      /  F ield         | OpenFOAM: The Open Source CFD Toolbox           |
|  \\    /   O peration     | Version:  v1906                                 |
|   \\  /    A nd           | Web:      www.OpenFOAM.com                      |
|    \\/     M anipulation  |                                                 |
\*---------------------------------------------------------------------------*/
FoamFile
{
    version     2.0;
    format      ascii;
    class       volScalarField;
    location    "225";
    object      k;
}
// * * * * * * * * * * * * * * * * * * * * * * * * * * * * * * * * * * * * * //

dimensions      [0 2 -2 0 0 0 0];


internalField   nonuniform List<scalar> 
171728
(
1.0942e-06
3.54578e-07
3.33812e-07
3.49216e-07
1.08418e-06
3.41121e-07
3.01051e-07
3.31156e-07
1.10148e-06
3.28646e-07
2.84564e-07
3.17093e-07
1.11935e-06
3.17269e-07
2.80445e-07
3.05669e-07
1.13784e-06
3.0725e-07
2.81358e-07
2.94547e-07
1.15696e-06
2.9926e-07
2.90714e-07
2.85009e-07
1.17712e-06
2.91955e-07
3.11562e-07
2.78459e-07
1.19804e-06
2.86327e-07
3.55686e-07
2.74597e-07
1.22122e-06
2.84479e-07
4.27076e-07
2.7036e-07
1.24412e-06
2.84738e-07
4.86632e-07
2.6326e-07
1.26767e-06
2.85252e-07
4.9568e-07
2.56877e-07
1.2917e-06
2.88063e-07
4.20582e-07
2.52257e-07
1.31661e-06
2.92815e-07
3.41782e-07
2.48829e-07
1.34115e-06
2.98912e-07
3.12048e-07
2.43934e-07
1.36529e-06
3.07616e-07
3.18111e-07
2.38878e-07
1.38809e-06
3.21862e-07
3.25215e-07
2.38239e-07
1.41525e-06
3.44931e-07
3.39121e-07
2.47403e-07
1.44258e-06
3.63396e-07
3.66577e-07
2.61983e-07
1.47085e-06
4.12781e-07
4.06612e-07
3.07181e-07
1.49967e-06
4.73028e-07
4.77045e-07
3.97838e-07
1.52769e-06
5.39677e-07
5.37179e-07
4.4554e-07
1.55899e-06
6.64554e-07
6.82012e-07
8.98735e-07
1.59302e-06
8.854e-07
8.18515e-07
1.16185e-06
1.61829e-06
1.11286e-06
1.1613e-06
1.89177e-06
1.66644e-06
1.47377e-06
1.40435e-06
2.55069e-06
1.69241e-06
1.71788e-06
1.89208e-06
4.40605e-06
1.74865e-06
2.5535e-06
2.41252e-06
5.88351e-06
1.79718e-06
3.05512e-06
3.14193e-06
8.63897e-06
1.85186e-06
3.73944e-06
3.7536e-06
1.00582e-05
1.93517e-06
4.78403e-06
4.75593e-06
1.27757e-05
2.01776e-06
5.76676e-06
5.8312e-06
1.55986e-05
2.13936e-06
6.94562e-06
6.97991e-06
1.7831e-05
2.26276e-06
8.32851e-06
8.30302e-06
2.0214e-05
2.4393e-06
9.58329e-06
9.74678e-06
2.22087e-05
2.64199e-06
1.12536e-05
1.12024e-05
2.41116e-05
2.88945e-06
1.28074e-05
1.28162e-05
2.57133e-05
3.2013e-06
1.46101e-05
1.45153e-05
2.73088e-05
3.54361e-06
1.63461e-05
1.63276e-05
2.87324e-05
4.01318e-06
1.82622e-05
1.81064e-05
3.00939e-05
4.53124e-06
2.00335e-05
1.99356e-05
3.1385e-05
5.15077e-06
2.21419e-05
2.17839e-05
3.26118e-05
5.81945e-06
2.37444e-05
2.36866e-05
3.38698e-05
6.60088e-06
2.55731e-05
2.54053e-05
3.49221e-05
7.51683e-06
2.72142e-05
2.71966e-05
3.61772e-05
8.42998e-06
2.87677e-05
2.89049e-05
3.71296e-05
9.67698e-06
3.05472e-05
3.0562e-05
3.81892e-05
1.05194e-05
3.15814e-05
3.15896e-05
3.8693e-05
1.21995e-05
3.40434e-05
3.4067e-05
4.06395e-05
1.4852e-05
3.66734e-05
3.66825e-05
4.26613e-05
1.62399e-05
3.72632e-05
3.72699e-05
4.29995e-05
1.6157e-05
3.6331e-05
3.63363e-05
4.17803e-05
1.44309e-05
3.44304e-05
3.44378e-05
3.9856e-05
1.3713e-05
3.39043e-05
3.39123e-05
3.92741e-05
1.48424e-05
3.48897e-05
3.4895e-05
3.98736e-05
1.84092e-05
3.77697e-05
3.77736e-05
4.2242e-05
2.34235e-05
4.13016e-05
4.13048e-05
4.52719e-05
2.77405e-05
4.39709e-05
4.39735e-05
4.75546e-05
3.04215e-05
4.5483e-05
4.54852e-05
4.8848e-05
3.17372e-05
4.6172e-05
4.61738e-05
4.94297e-05
3.22966e-05
4.64602e-05
4.64616e-05
4.96768e-05
3.25143e-05
4.65714e-05
4.65727e-05
4.97739e-05
3.25639e-05
4.65888e-05
4.65903e-05
4.98013e-05
3.25662e-05
4.65816e-05
4.65832e-05
4.97786e-05
3.25787e-05
4.65962e-05
4.65975e-05
4.98026e-05
3.25763e-05
4.65896e-05
4.65911e-05
4.97975e-05
3.25748e-05
4.65888e-05
4.65905e-05
4.9785e-05
3.25765e-05
4.65928e-05
4.65942e-05
4.98065e-05
3.25751e-05
4.65886e-05
4.65901e-05
4.97837e-05
3.25757e-05
4.65916e-05
4.65931e-05
4.9805e-05
3.25752e-05
4.65902e-05
4.65915e-05
4.97851e-05
3.25751e-05
4.65902e-05
4.65919e-05
4.98025e-05
3.25751e-05
4.65905e-05
4.65919e-05
4.97929e-05
3.25751e-05
4.65903e-05
4.65919e-05
4.97903e-05
3.2575e-05
4.65904e-05
4.65917e-05
4.98026e-05
3.2575e-05
4.65908e-05
4.65924e-05
4.97948e-05
3.2575e-05
4.65907e-05
4.65923e-05
4.97876e-05
3.2575e-05
4.65901e-05
4.65914e-05
4.97924e-05
3.25749e-05
4.65907e-05
4.65921e-05
4.98026e-05
3.25749e-05
4.65911e-05
4.65923e-05
4.97965e-05
3.25751e-05
4.65904e-05
4.65918e-05
4.97897e-05
3.25752e-05
4.65905e-05
4.65918e-05
4.97872e-05
3.25752e-05
4.65909e-05
4.65921e-05
4.98036e-05
3.25752e-05
4.65908e-05
4.65922e-05
4.97937e-05
3.2575e-05
4.65907e-05
4.65916e-05
4.97887e-05
3.25749e-05
4.6591e-05
4.65922e-05
4.98019e-05
3.25749e-05
4.65906e-05
4.65917e-05
4.97981e-05
3.25749e-05
4.65904e-05
4.65918e-05
4.97866e-05
3.2575e-05
4.6591e-05
4.65922e-05
4.97953e-05
3.2575e-05
4.65911e-05
4.65921e-05
4.98017e-05
3.25751e-05
4.65914e-05
4.65926e-05
4.97955e-05
3.25752e-05
4.65919e-05
4.65934e-05
4.97877e-05
3.25755e-05
4.65929e-05
4.65942e-05
4.97894e-05
3.25754e-05
4.65948e-05
4.6596e-05
4.97963e-05
3.25638e-05
4.6583e-05
4.65843e-05
4.97938e-05
3.2005e-05
4.53009e-05
4.53002e-05
4.92822e-05
3.43095e-07
3.46097e-07
3.42242e-07
3.43336e-07
3.41803e-07
3.43549e-07
1.1238e-06
1.12869e-06
1.13179e-06
1.12799e-06
3.39185e-07
3.4561e-07
3.49328e-07
3.02835e-07
3.39954e-07
3.52078e-07
3.39919e-07
3.24407e-07
3.63789e-07
3.62719e-07
3.52097e-07
3.50403e-07
3.40502e-07
3.26639e-07
3.57881e-07
3.60739e-07
3.46753e-07
3.48973e-07
3.71841e-07
3.44203e-07
3.63224e-07
3.47336e-07
3.30848e-07
3.57347e-07
3.07113e-07
3.4541e-07
3.34019e-07
3.21331e-07
3.09628e-07
3.4846e-07
3.46755e-07
3.38124e-07
3.36382e-07
3.23925e-07
3.12731e-07
3.43498e-07
3.4541e-07
3.35094e-07
3.35397e-07
3.60569e-07
3.31703e-07
3.5307e-07
3.27838e-07
3.1382e-07
3.41778e-07
2.8732e-07
3.31769e-07
3.19345e-07
3.07248e-07
2.99318e-07
3.34834e-07
3.33338e-07
3.25581e-07
3.25735e-07
3.10347e-07
3.00672e-07
3.32649e-07
3.32374e-07
3.25134e-07
3.23868e-07
3.50654e-07
3.19928e-07
3.42323e-07
3.11115e-07
2.98358e-07
3.28676e-07
2.80831e-07
3.19864e-07
3.07842e-07
2.97715e-07
2.92124e-07
3.22725e-07
3.23572e-07
3.15086e-07
3.16387e-07
2.98577e-07
2.90285e-07
3.22643e-07
3.21275e-07
3.16117e-07
3.14177e-07
3.39657e-07
3.09553e-07
3.32109e-07
2.95795e-07
2.85121e-07
3.17155e-07
2.80628e-07
3.10095e-07
2.9674e-07
2.90596e-07
2.83696e-07
3.12769e-07
3.13786e-07
3.06261e-07
3.06402e-07
2.88315e-07
2.80012e-07
3.14086e-07
3.12083e-07
3.05289e-07
3.05919e-07
3.29998e-07
3.00998e-07
3.24238e-07
2.83085e-07
2.76162e-07
3.0813e-07
2.86927e-07
3.02892e-07
2.86796e-07
2.81771e-07
2.73112e-07
3.0447e-07
3.04498e-07
2.99919e-07
3.00086e-07
2.78037e-07
2.70615e-07
3.01084e-07
3.04064e-07
2.86866e-07
2.99248e-07
3.22642e-07
2.93842e-07
3.18464e-07
2.74744e-07
2.72269e-07
3.01251e-07
3.05122e-07
2.97418e-07
2.79661e-07
2.71053e-07
2.6214e-07
2.98558e-07
2.98687e-07
2.94339e-07
2.94666e-07
2.68882e-07
2.62973e-07
2.8262e-07
2.97868e-07
2.72419e-07
2.94071e-07
3.17254e-07
2.87375e-07
3.15627e-07
2.71834e-07
2.74976e-07
2.96398e-07
3.41347e-07
2.93172e-07
2.7549e-07
2.59947e-07
2.5137e-07
2.93098e-07
2.93288e-07
2.89955e-07
2.90435e-07
2.61661e-07
2.58177e-07
2.6994e-07
2.93081e-07
2.65122e-07
2.91015e-07
3.15107e-07
2.84632e-07
3.13944e-07
2.74908e-07
2.81771e-07
2.9209e-07
4.07951e-07
2.90023e-07
2.71503e-07
2.49945e-07
2.46368e-07
2.89321e-07
2.89702e-07
2.87986e-07
2.87975e-07
2.57286e-07
2.54397e-07
2.64612e-07
2.90707e-07
2.64711e-07
2.89822e-07
3.13212e-07
2.84686e-07
3.10508e-07
2.81674e-07
2.86201e-07
2.89388e-07
4.76284e-07
2.8791e-07
2.64653e-07
2.45592e-07
2.42731e-07
2.87947e-07
2.87911e-07
2.87872e-07
2.87352e-07
2.53509e-07
2.49725e-07
2.65084e-07
2.89688e-07
2.65885e-07
2.89014e-07
3.10435e-07
2.85042e-07
3.1102e-07
2.85358e-07
2.80677e-07
2.87277e-07
4.96678e-07
2.86775e-07
2.58036e-07
2.4205e-07
2.37633e-07
2.87898e-07
2.87356e-07
2.8846e-07
2.8796e-07
2.48707e-07
2.44256e-07
2.65922e-07
2.88902e-07
2.65448e-07
2.89111e-07
3.11763e-07
2.87111e-07
3.17563e-07
2.77742e-07
2.56027e-07
2.86868e-07
4.44457e-07
2.88131e-07
2.5287e-07
2.37092e-07
2.32077e-07
2.88982e-07
2.88327e-07
2.91532e-07
2.91239e-07
2.43791e-07
2.41118e-07
2.65491e-07
2.89426e-07
2.66443e-07
2.91824e-07
3.20309e-07
2.91835e-07
3.29231e-07
2.52666e-07
2.41997e-07
2.89254e-07
3.58288e-07
2.92752e-07
2.49283e-07
2.31712e-07
2.2803e-07
2.92704e-07
2.92427e-07
2.97363e-07
2.98415e-07
2.4091e-07
2.39852e-07
2.67109e-07
2.92735e-07
2.70836e-07
2.97325e-07
3.32119e-07
2.97373e-07
3.39427e-07
2.41156e-07
2.36477e-07
2.94202e-07
3.13793e-07
2.9957e-07
2.44383e-07
2.28029e-07
2.26957e-07
2.993e-07
3.01021e-07
3.0672e-07
3.09127e-07
2.40017e-07
2.40738e-07
2.72964e-07
2.99432e-07
2.79286e-07
3.06091e-07
3.4139e-07
3.05727e-07
3.43907e-07
2.36654e-07
2.36635e-07
3.01361e-07
3.15245e-07
3.07969e-07
2.38947e-07
2.27366e-07
2.28921e-07
3.09103e-07
3.11907e-07
3.18988e-07
3.24022e-07
2.41424e-07
2.45668e-07
2.81799e-07
3.08946e-07
2.91127e-07
3.18194e-07
3.43862e-07
3.18412e-07
3.36565e-07
2.37092e-07
2.38429e-07
3.10645e-07
3.23992e-07
3.20049e-07
2.37227e-07
2.30253e-07
2.3848e-07
3.21855e-07
3.27235e-07
3.37854e-07
3.41832e-07
2.47166e-07
2.55942e-07
2.93432e-07
3.21874e-07
3.07712e-07
3.36713e-07
3.33831e-07
3.36357e-07
3.33368e-07
2.40156e-07
2.48886e-07
3.23477e-07
3.34988e-07
3.36654e-07
2.42118e-07
2.42347e-07
2.49822e-07
3.42915e-07
3.51438e-07
3.59907e-07
3.66018e-07
2.67139e-07
2.72842e-07
3.13032e-07
3.41469e-07
3.30585e-07
3.63442e-07
3.3632e-07
3.60107e-07
3.42104e-07
2.53152e-07
2.70482e-07
3.43263e-07
3.5973e-07
3.60529e-07
2.57272e-07
2.61223e-07
2.94227e-07
3.69628e-07
3.67995e-07
4.02807e-07
4.04404e-07
2.73621e-07
3.19143e-07
3.39721e-07
3.70158e-07
3.73407e-07
4.00679e-07
3.46068e-07
4.0238e-07
3.73367e-07
2.80657e-07
3.02641e-07
3.67278e-07
3.96995e-07
3.97607e-07
2.89669e-07
3.05596e-07
3.33964e-07
4.14159e-07
4.16581e-07
4.41078e-07
4.51316e-07
3.40277e-07
3.6191e-07
3.85635e-07
4.11099e-07
4.1168e-07
4.6037e-07
3.85016e-07
4.46499e-07
4.37128e-07
3.21621e-07
3.76789e-07
4.09812e-07
4.54632e-07
4.57834e-07
3.71741e-07
3.60764e-07
5.0824e-07
4.73655e-07
4.78947e-07
5.29014e-07
5.26931e-07
3.91265e-07
5.11676e-07
4.41813e-07
4.81774e-07
5.00941e-07
5.12946e-07
4.6173e-07
5.18798e-07
4.91426e-07
4.15385e-07
4.53094e-07
4.78315e-07
5.08748e-07
5.08457e-07
4.33398e-07
5.15064e-07
7.66448e-07
5.36902e-07
5.44734e-07
6.62786e-07
6.55074e-07
5.21006e-07
7.91597e-07
5.13969e-07
5.45298e-07
6.316e-07
6.55393e-07
5.05201e-07
6.50086e-07
6.62718e-07
4.6883e-07
8.23533e-07
5.29096e-07
6.5169e-07
6.81494e-07
8.73581e-07
8.36884e-07
9.81974e-07
6.92536e-07
6.70435e-07
7.79279e-07
8.56125e-07
8.33839e-07
1.19265e-06
6.5769e-07
6.86504e-07
7.45384e-07
8.04036e-07
6.80005e-07
8.38832e-07
7.5068e-07
8.48889e-07
1.0974e-06
6.94359e-07
7.89132e-07
7.73682e-07
9.38119e-07
1.12485e-06
1.76535e-06
8.65893e-07
9.05614e-07
1.05481e-06
9.91019e-07
1.39385e-06
1.4932e-06
8.38269e-07
8.29493e-07
1.04427e-06
1.09359e-06
8.36829e-07
9.96609e-07
1.06793e-06
1.19736e-06
1.77567e-06
8.74496e-07
1.09526e-06
1.07968e-06
1.85041e-06
1.77919e-06
2.69543e-06
1.06664e-06
1.10586e-06
1.38789e-06
1.42127e-06
1.63303e-06
2.97044e-06
1.05463e-06
1.16147e-06
1.33435e-06
1.25874e-06
1.10041e-06
1.39012e-06
1.22024e-06
2.05502e-06
2.25178e-06
1.10468e-06
1.25357e-06
1.25536e-06
2.13087e-06
3.45706e-06
3.86613e-06
1.61076e-06
1.5041e-06
1.76112e-06
1.6219e-06
3.04881e-06
3.38049e-06
1.57315e-06
1.4136e-06
1.74335e-06
1.87958e-06
1.44718e-06
1.61882e-06
1.84911e-06
2.35617e-06
4.53093e-06
1.49257e-06
1.87283e-06
1.85326e-06
4.41199e-06
3.74951e-06
6.13059e-06
1.76464e-06
1.69484e-06
2.34405e-06
2.41102e-06
3.53386e-06
6.11494e-06
1.75047e-06
1.89994e-06
2.31598e-06
2.09433e-06
1.85359e-06
2.39016e-06
2.09805e-06
4.57184e-06
4.59194e-06
1.86048e-06
2.07798e-06
2.16424e-06
4.65591e-06
6.98028e-06
7.89491e-06
2.55143e-06
2.57019e-06
2.9194e-06
2.89433e-06
6.85047e-06
7.81697e-06
2.49992e-06
2.42416e-06
2.89609e-06
3.06559e-06
2.48138e-06
2.91109e-06
2.92756e-06
5.30304e-06
8.82574e-06
2.51475e-06
3.06398e-06
2.95797e-06
8.57273e-06
8.01436e-06
9.63727e-06
3.0578e-06
3.04611e-06
3.55169e-06
3.53426e-06
7.9521e-06
9.57892e-06
3.06194e-06
3.15015e-06
3.52874e-06
3.56051e-06
3.04391e-06
3.53725e-06
3.56824e-06
9.01545e-06
9.35133e-06
3.07305e-06
3.5411e-06
3.58695e-06
9.46655e-06
1.00979e-05
1.23206e-05
3.75338e-06
3.73164e-06
4.49108e-06
4.51404e-06
1.00817e-05
1.23802e-05
3.71068e-06
3.77147e-06
4.49475e-06
4.5213e-06
3.73533e-06
4.52506e-06
4.43686e-06
9.7667e-06
1.2412e-05
3.76787e-06
4.48191e-06
4.46457e-06
1.22335e-05
1.29479e-05
1.50459e-05
4.76621e-06
4.76769e-06
5.52658e-06
5.51126e-06
1.29901e-05
1.50653e-05
4.78559e-06
4.79446e-06
5.47269e-06
5.57334e-06
4.72433e-06
5.49698e-06
5.49629e-06
1.30111e-05
1.51298e-05
4.74963e-06
5.57861e-06
5.5397e-06
1.51049e-05
1.54772e-05
1.73814e-05
5.76273e-06
5.80433e-06
6.65068e-06
6.6361e-06
1.5529e-05
1.73836e-05
5.69883e-06
5.83146e-06
6.69581e-06
6.70393e-06
5.76137e-06
6.64295e-06
6.62905e-06
1.56054e-05
1.74236e-05
5.79059e-06
6.65262e-06
6.643e-06
1.73335e-05
1.79459e-05
1.97337e-05
6.9917e-06
6.90349e-06
7.94724e-06
7.97773e-06
1.78979e-05
1.97532e-05
7.0492e-06
7.02401e-06
7.86699e-06
7.97223e-06
6.9236e-06
7.99499e-06
7.91441e-06
1.79252e-05
1.97594e-05
6.96003e-06
7.9842e-06
7.95759e-06
1.97328e-05
2.01528e-05
2.1733e-05
8.2482e-06
8.32659e-06
9.27709e-06
9.21112e-06
2.02253e-05
2.16749e-05
8.15603e-06
8.28421e-06
9.32237e-06
9.4083e-06
8.26483e-06
9.22126e-06
9.29476e-06
2.02335e-05
2.18179e-05
8.28653e-06
9.3784e-06
9.30436e-06
2.17662e-05
2.22214e-05
2.37598e-05
9.69763e-06
9.60985e-06
1.09022e-05
1.09162e-05
2.21005e-05
2.3733e-05
9.74256e-06
9.80536e-06
1.08578e-05
1.08168e-05
9.66305e-06
1.08474e-05
1.08406e-05
2.22645e-05
2.3658e-05
9.68659e-06
1.07889e-05
1.08718e-05
2.37058e-05
2.41378e-05
2.53138e-05
1.1216e-05
1.12549e-05
1.23661e-05
1.23655e-05
2.41595e-05
2.53451e-05
1.12013e-05
1.11886e-05
1.23618e-05
1.25233e-05
1.12276e-05
1.24074e-05
1.24125e-05
2.40571e-05
2.54058e-05
1.12451e-05
1.2481e-05
1.23896e-05
2.53311e-05
2.57311e-05
2.69976e-05
1.28589e-05
1.28348e-05
1.41471e-05
1.42063e-05
2.5751e-05
2.69994e-05
1.28042e-05
1.29189e-05
1.41506e-05
1.40564e-05
1.28094e-05
1.41528e-05
1.40862e-05
2.57755e-05
2.68576e-05
1.27864e-05
1.39843e-05
1.4072e-05
2.69347e-05
2.73228e-05
2.83859e-05
1.45107e-05
1.46012e-05
1.58136e-05
1.57963e-05
2.73246e-05
2.83158e-05
1.45702e-05
1.45286e-05
1.5775e-05
1.59658e-05
1.45669e-05
1.58889e-05
1.58785e-05
2.72584e-05
2.8488e-05
1.45434e-05
1.59606e-05
1.58477e-05
2.84095e-05
2.87571e-05
2.97778e-05
1.63164e-05
1.62817e-05
1.77e-05
1.78262e-05
2.86853e-05
2.98801e-05
1.62315e-05
1.63762e-05
1.77548e-05
1.76731e-05
1.62672e-05
1.78223e-05
1.76326e-05
2.87848e-05
2.97036e-05
1.62566e-05
1.75886e-05
1.76531e-05
2.97533e-05
3.00727e-05
3.10323e-05
1.81053e-05
1.82384e-05
1.9485e-05
1.93219e-05
3.01741e-05
3.09537e-05
1.82338e-05
1.81654e-05
1.95892e-05
1.95398e-05
1.8123e-05
1.95338e-05
1.95075e-05
3.00631e-05
3.11063e-05
1.81279e-05
1.95396e-05
1.94654e-05
3.10885e-05
3.13682e-05
3.23502e-05
2.00075e-05
1.97868e-05
2.14199e-05
2.14537e-05
3.12699e-05
3.2452e-05
2.00516e-05
1.99447e-05
2.14346e-05
2.13095e-05
1.99861e-05
2.16597e-05
2.14169e-05
3.13786e-05
3.22448e-05
1.99377e-05
2.12585e-05
2.13586e-05
3.23231e-05
3.26151e-05
3.3445e-05
2.1832e-05
2.1952e-05
2.30944e-05
2.32044e-05
3.27326e-05
3.34372e-05
2.18907e-05
2.18316e-05
2.32779e-05
2.32868e-05
2.18534e-05
2.33315e-05
2.32404e-05
3.25684e-05
3.35829e-05
2.18042e-05
2.32505e-05
2.32349e-05
3.35643e-05
3.37373e-05
3.47248e-05
2.35516e-05
2.36673e-05
2.49195e-05
2.51393e-05
3.36998e-05
3.47604e-05
2.37598e-05
2.37316e-05
2.51598e-05
2.50359e-05
2.37438e-05
2.51036e-05
2.50265e-05
3.38449e-05
3.46347e-05
2.37374e-05
2.49563e-05
2.49803e-05
3.46918e-05
3.50111e-05
3.5919e-05
2.53975e-05
2.56001e-05
2.68341e-05
2.68368e-05
3.50502e-05
3.57985e-05
2.56306e-05
2.5489e-05
2.69662e-05
2.68114e-05
2.5443e-05
2.68453e-05
2.68703e-05
3.49041e-05
3.58123e-05
2.539e-05
2.67597e-05
2.68364e-05
3.58858e-05
3.61669e-05
3.69687e-05
2.72839e-05
2.72329e-05
2.85426e-05
2.84683e-05
3.60215e-05
3.68487e-05
2.73643e-05
2.72312e-05
2.85025e-05
2.84638e-05
2.7328e-05
2.82889e-05
2.8484e-05
3.60735e-05
3.69293e-05
2.7304e-05
2.84284e-05
2.84583e-05
3.69089e-05
3.72299e-05
3.80448e-05
2.903e-05
2.89731e-05
3.04011e-05
3.03685e-05
3.71281e-05
3.80258e-05
2.89805e-05
2.89532e-05
3.03728e-05
3.0293e-05
2.8954e-05
3.02392e-05
3.04232e-05
3.71906e-05
3.79923e-05
2.89199e-05
3.02755e-05
3.03966e-05
3.80077e-05
3.81948e-05
3.84818e-05
3.0683e-05
3.06344e-05
3.13623e-05
3.12746e-05
3.81849e-05
3.84985e-05
3.06399e-05
3.05526e-05
3.12398e-05
3.12112e-05
3.07177e-05
3.12497e-05
3.13052e-05
3.81461e-05
3.8469e-05
3.07106e-05
3.12556e-05
3.13412e-05
3.85168e-05
3.86705e-05
4.0241e-05
3.16921e-05
3.16078e-05
3.33676e-05
3.3306e-05
3.86937e-05
4.0254e-05
3.15597e-05
3.15547e-05
3.32434e-05
3.33035e-05
3.1595e-05
3.327e-05
3.31969e-05
3.86706e-05
4.02547e-05
3.16301e-05
3.32913e-05
3.32192e-05
4.01776e-05
4.07096e-05
4.24154e-05
3.41273e-05
3.40746e-05
3.6224e-05
3.62003e-05
4.07193e-05
4.24243e-05
3.40153e-05
3.40901e-05
3.61622e-05
3.62386e-05
3.39594e-05
3.62051e-05
3.61475e-05
4.07254e-05
4.24433e-05
3.39779e-05
3.62182e-05
3.61527e-05
4.23877e-05
4.26723e-05
4.29435e-05
3.66766e-05
3.66585e-05
3.72337e-05
3.72172e-05
4.26827e-05
4.29537e-05
3.66272e-05
3.66943e-05
3.71933e-05
3.72399e-05
3.66354e-05
3.72418e-05
3.72446e-05
4.27001e-05
4.29636e-05
3.66381e-05
3.72484e-05
3.72481e-05
4.29782e-05
4.29622e-05
4.18854e-05
3.72553e-05
3.72386e-05
3.69072e-05
3.68902e-05
4.29721e-05
4.18861e-05
3.72146e-05
3.72593e-05
3.68688e-05
3.68847e-05
3.72699e-05
3.69087e-05
3.69454e-05
4.29813e-05
4.18821e-05
3.72741e-05
3.69137e-05
3.69545e-05
4.19347e-05
4.17341e-05
3.99085e-05
3.63365e-05
3.63175e-05
3.48076e-05
3.4784e-05
4.17331e-05
3.98951e-05
3.62999e-05
3.63072e-05
3.47751e-05
3.47767e-05
3.63712e-05
3.4786e-05
3.48109e-05
4.17289e-05
3.98962e-05
3.63815e-05
3.4793e-05
3.48185e-05
3.992e-05
3.98467e-05
3.9251e-05
3.44542e-05
3.44308e-05
3.39466e-05
3.39279e-05
3.98331e-05
3.92388e-05
3.44236e-05
3.4425e-05
3.39232e-05
3.39267e-05
3.44514e-05
3.39223e-05
3.39353e-05
3.98345e-05
3.92442e-05
3.44578e-05
3.39303e-05
3.39369e-05
3.9248e-05
3.92776e-05
3.96375e-05
3.39275e-05
3.39105e-05
3.44703e-05
3.4465e-05
3.9266e-05
3.96337e-05
3.3906e-05
3.39104e-05
3.44604e-05
3.44706e-05
3.39158e-05
3.44592e-05
3.44634e-05
3.92717e-05
3.96402e-05
3.39163e-05
3.44649e-05
3.44585e-05
3.96358e-05
3.98744e-05
4.17036e-05
3.48993e-05
3.48946e-05
3.69113e-05
3.69094e-05
3.98715e-05
4.17017e-05
3.48899e-05
3.48999e-05
3.6905e-05
3.69134e-05
3.48954e-05
3.69066e-05
3.69121e-05
3.98775e-05
4.17065e-05
3.48914e-05
3.69108e-05
3.69093e-05
4.17054e-05
4.22402e-05
4.47579e-05
3.77739e-05
3.77727e-05
4.04657e-05
4.04658e-05
4.22387e-05
4.47565e-05
3.77688e-05
3.77762e-05
4.04629e-05
4.04676e-05
3.77756e-05
4.04635e-05
4.04686e-05
4.2243e-05
4.47593e-05
3.77731e-05
4.04669e-05
4.04667e-05
4.47601e-05
4.527e-05
4.72078e-05
4.13038e-05
4.13041e-05
4.34176e-05
4.34181e-05
4.52687e-05
4.72065e-05
4.13017e-05
4.13054e-05
4.34164e-05
4.34184e-05
4.13068e-05
4.34164e-05
4.34204e-05
4.52711e-05
4.72081e-05
4.13052e-05
4.34191e-05
4.34193e-05
4.72097e-05
4.7553e-05
4.86569e-05
4.3972e-05
4.39724e-05
4.52007e-05
4.52008e-05
4.75518e-05
4.86559e-05
4.3971e-05
4.39726e-05
4.51996e-05
4.52009e-05
4.39749e-05
4.52002e-05
4.52035e-05
4.75531e-05
4.86571e-05
4.39738e-05
4.52024e-05
4.52027e-05
4.86589e-05
4.8846e-05
4.9333e-05
4.54833e-05
4.54833e-05
4.60508e-05
4.60506e-05
4.88451e-05
4.93322e-05
4.54824e-05
4.54835e-05
4.60499e-05
4.6051e-05
4.54863e-05
4.60511e-05
4.60539e-05
4.88462e-05
4.93335e-05
4.54855e-05
4.6053e-05
4.60533e-05
4.93354e-05
4.94272e-05
4.96208e-05
4.61714e-05
4.61713e-05
4.64087e-05
4.64087e-05
4.94266e-05
4.96204e-05
4.61707e-05
4.61716e-05
4.64081e-05
4.64089e-05
4.61746e-05
4.64098e-05
4.6412e-05
4.94277e-05
4.96213e-05
4.61741e-05
4.64113e-05
4.64116e-05
4.96233e-05
4.96742e-05
4.97388e-05
4.6459e-05
4.6459e-05
4.65535e-05
4.65538e-05
4.96739e-05
4.97386e-05
4.64585e-05
4.64592e-05
4.65531e-05
4.65537e-05
4.64623e-05
4.65548e-05
4.65568e-05
4.96747e-05
4.97392e-05
4.6462e-05
4.65562e-05
4.65566e-05
4.97412e-05
4.97714e-05
4.97742e-05
4.65701e-05
4.65703e-05
4.65878e-05
4.6588e-05
4.97713e-05
4.9774e-05
4.65696e-05
4.65702e-05
4.65873e-05
4.65878e-05
4.65733e-05
4.65889e-05
4.65911e-05
4.97718e-05
4.97745e-05
4.65731e-05
4.65904e-05
4.65909e-05
4.97766e-05
4.97988e-05
4.97552e-05
4.65877e-05
4.65878e-05
4.65804e-05
4.65806e-05
4.97987e-05
4.97547e-05
4.65872e-05
4.65877e-05
4.65799e-05
4.65805e-05
4.6591e-05
4.65815e-05
4.65838e-05
4.97991e-05
4.97557e-05
4.65907e-05
4.65832e-05
4.65836e-05
4.97579e-05
4.97759e-05
4.9774e-05
4.65804e-05
4.65806e-05
4.65928e-05
4.65931e-05
4.97755e-05
4.9774e-05
4.65799e-05
4.65805e-05
4.65922e-05
4.65928e-05
4.65838e-05
4.6594e-05
4.6596e-05
4.97764e-05
4.97744e-05
4.65836e-05
4.65954e-05
4.65957e-05
4.97764e-05
4.98001e-05
4.97763e-05
4.6595e-05
4.65952e-05
4.65917e-05
4.65918e-05
4.98001e-05
4.97755e-05
4.65945e-05
4.65949e-05
4.65912e-05
4.65916e-05
4.65982e-05
4.65928e-05
4.65947e-05
4.98005e-05
4.97761e-05
4.65978e-05
4.65941e-05
4.65944e-05
4.97781e-05
4.97956e-05
4.97572e-05
4.65885e-05
4.65886e-05
4.65867e-05
4.65869e-05
4.97949e-05
4.9757e-05
4.6588e-05
4.65884e-05
4.65862e-05
4.65868e-05
4.65916e-05
4.65878e-05
4.659e-05
4.97954e-05
4.97578e-05
4.65914e-05
4.65894e-05
4.65899e-05
4.97599e-05
4.97818e-05
4.97803e-05
4.65874e-05
4.65877e-05
4.65918e-05
4.65919e-05
4.97819e-05
4.97802e-05
4.65869e-05
4.65875e-05
4.65913e-05
4.65918e-05
4.65909e-05
4.65929e-05
4.6595e-05
4.97826e-05
4.97809e-05
4.65908e-05
4.65944e-05
4.65947e-05
4.97829e-05
4.98042e-05
4.97596e-05
4.65917e-05
4.65918e-05
4.65872e-05
4.65874e-05
4.98038e-05
4.97589e-05
4.65912e-05
4.65916e-05
4.65866e-05
4.65872e-05
4.65948e-05
4.65884e-05
4.65905e-05
4.98044e-05
4.97596e-05
4.65945e-05
4.65898e-05
4.65902e-05
4.97615e-05
4.97813e-05
4.97782e-05
4.65872e-05
4.65876e-05
4.65908e-05
4.6591e-05
4.9781e-05
4.97783e-05
4.65867e-05
4.65873e-05
4.65903e-05
4.65909e-05
4.65906e-05
4.65919e-05
4.6594e-05
4.97816e-05
4.9779e-05
4.65904e-05
4.65935e-05
4.65939e-05
4.97811e-05
4.98025e-05
4.97598e-05
4.65905e-05
4.65906e-05
4.65882e-05
4.65886e-05
4.98022e-05
4.97593e-05
4.659e-05
4.65905e-05
4.65875e-05
4.65881e-05
4.65937e-05
4.65895e-05
4.65916e-05
4.98029e-05
4.97599e-05
4.65935e-05
4.65909e-05
4.65913e-05
4.97621e-05
4.97822e-05
4.97783e-05
4.65887e-05
4.65892e-05
4.65894e-05
4.65896e-05
4.97826e-05
4.97778e-05
4.6588e-05
4.65887e-05
4.65891e-05
4.65895e-05
4.65921e-05
4.65906e-05
4.65927e-05
4.97829e-05
4.97785e-05
4.65917e-05
4.6592e-05
4.65924e-05
4.97806e-05
4.98007e-05
4.97611e-05
4.65891e-05
4.65892e-05
4.6589e-05
4.65896e-05
4.97991e-05
4.9763e-05
4.65887e-05
4.6589e-05
4.65883e-05
4.6589e-05
4.65923e-05
4.65904e-05
4.65924e-05
4.98e-05
4.97633e-05
4.65923e-05
4.65918e-05
4.65922e-05
4.97648e-05
4.97884e-05
4.97701e-05
4.65891e-05
4.65897e-05
4.6589e-05
4.65891e-05
4.97913e-05
4.97669e-05
4.65884e-05
4.65891e-05
4.65884e-05
4.6589e-05
4.65926e-05
4.65902e-05
4.65923e-05
4.97914e-05
4.97676e-05
4.65922e-05
4.65917e-05
4.65921e-05
4.97705e-05
4.97894e-05
4.97747e-05
4.6589e-05
4.65892e-05
4.65892e-05
4.65896e-05
4.97869e-05
4.9776e-05
4.65884e-05
4.6589e-05
4.65883e-05
4.65891e-05
4.65924e-05
4.65904e-05
4.65925e-05
4.97875e-05
4.97767e-05
4.65922e-05
4.65919e-05
4.65923e-05
4.97785e-05
4.97996e-05
4.9762e-05
4.6589e-05
4.65892e-05
4.65893e-05
4.65897e-05
4.98e-05
4.97635e-05
4.65883e-05
4.6589e-05
4.65884e-05
4.65894e-05
4.65924e-05
4.65907e-05
4.65927e-05
4.98003e-05
4.97654e-05
4.6592e-05
4.65922e-05
4.65925e-05
4.97665e-05
4.97891e-05
4.9765e-05
4.65895e-05
4.65899e-05
4.65886e-05
4.65891e-05
4.97918e-05
4.97639e-05
4.65884e-05
4.65894e-05
4.65882e-05
4.65889e-05
4.65928e-05
4.65903e-05
4.65923e-05
4.97937e-05
4.97635e-05
4.65926e-05
4.65917e-05
4.65919e-05
4.97661e-05
4.97855e-05
4.9776e-05
4.65889e-05
4.65895e-05
4.6589e-05
4.65892e-05
4.9785e-05
4.97723e-05
4.65885e-05
4.65894e-05
4.65884e-05
4.65887e-05
4.65927e-05
4.659e-05
4.65918e-05
4.97854e-05
4.97709e-05
4.65924e-05
4.65914e-05
4.65916e-05
4.97733e-05
4.97962e-05
4.9772e-05
4.65887e-05
4.65891e-05
4.6589e-05
4.65898e-05
4.97913e-05
4.97759e-05
4.65883e-05
4.65888e-05
4.65883e-05
4.65894e-05
4.6592e-05
4.65913e-05
4.65935e-05
4.979e-05
4.97768e-05
4.65916e-05
4.65927e-05
4.65931e-05
4.97795e-05
4.97981e-05
4.97617e-05
4.6589e-05
4.65895e-05
4.65887e-05
4.65896e-05
4.97986e-05
4.97701e-05
4.65884e-05
4.65892e-05
4.6588e-05
4.6589e-05
4.65926e-05
4.65903e-05
4.6592e-05
4.97989e-05
4.9771e-05
4.65924e-05
4.65916e-05
4.65917e-05
4.9768e-05
4.97884e-05
4.97647e-05
4.65888e-05
4.65898e-05
4.65887e-05
4.65893e-05
4.97972e-05
4.97617e-05
4.65882e-05
4.65891e-05
4.65881e-05
4.6589e-05
4.65933e-05
4.65901e-05
4.65924e-05
4.97978e-05
4.97626e-05
4.6593e-05
4.65914e-05
4.65921e-05
4.97663e-05
4.97854e-05
4.97737e-05
4.65889e-05
4.65896e-05
4.65891e-05
4.65891e-05
4.97883e-05
4.97653e-05
4.65882e-05
4.65892e-05
4.65884e-05
4.65888e-05
4.65925e-05
4.65903e-05
4.65924e-05
4.97893e-05
4.97652e-05
4.65922e-05
4.65916e-05
4.6592e-05
4.97668e-05
4.97929e-05
4.97766e-05
4.65894e-05
4.65893e-05
4.6589e-05
4.65893e-05
4.97857e-05
4.97767e-05
4.65887e-05
4.65891e-05
4.65883e-05
4.65889e-05
4.65925e-05
4.65905e-05
4.65928e-05
4.97858e-05
4.97761e-05
4.65922e-05
4.65918e-05
4.65926e-05
4.97808e-05
4.97983e-05
4.97678e-05
4.65891e-05
4.65895e-05
4.65891e-05
4.65892e-05
4.97987e-05
4.97673e-05
4.65884e-05
4.65891e-05
4.65884e-05
4.65889e-05
4.65931e-05
4.65902e-05
4.65921e-05
4.97966e-05
4.97715e-05
4.65929e-05
4.65915e-05
4.65919e-05
4.97652e-05
4.97958e-05
4.97661e-05
4.65896e-05
4.65896e-05
4.65886e-05
4.65891e-05
4.97942e-05
4.97697e-05
4.6589e-05
4.65892e-05
4.65881e-05
4.65889e-05
4.65927e-05
4.65904e-05
4.65922e-05
4.97955e-05
4.97754e-05
4.65926e-05
4.65914e-05
4.65918e-05
4.97684e-05
4.97864e-05
4.97727e-05
4.65888e-05
4.65894e-05
4.65886e-05
4.65889e-05
4.97951e-05
4.9769e-05
4.65883e-05
4.6589e-05
4.65881e-05
4.65888e-05
4.65925e-05
4.65901e-05
4.65923e-05
4.97948e-05
4.97735e-05
4.65921e-05
4.65915e-05
4.65921e-05
4.97797e-05
4.97977e-05
4.97623e-05
4.65893e-05
4.65896e-05
4.65879e-05
4.65882e-05
4.97971e-05
4.97606e-05
4.65889e-05
4.65896e-05
4.65873e-05
4.65879e-05
4.65928e-05
4.65893e-05
4.65918e-05
4.97994e-05
4.97616e-05
4.65924e-05
4.65904e-05
4.65913e-05
4.97698e-05
4.97838e-05
4.97758e-05
4.6589e-05
4.65894e-05
4.65881e-05
4.65884e-05
4.97833e-05
4.97744e-05
4.65884e-05
4.6589e-05
4.65875e-05
4.65883e-05
4.65929e-05
4.65894e-05
4.65914e-05
4.97838e-05
4.97763e-05
4.65925e-05
4.65907e-05
4.65907e-05
4.97645e-05
4.97958e-05
4.97701e-05
4.65892e-05
4.65895e-05
4.65879e-05
4.65883e-05
4.97937e-05
4.97713e-05
4.65884e-05
4.65893e-05
4.65873e-05
4.65878e-05
4.65925e-05
4.65894e-05
4.65915e-05
4.97984e-05
4.97637e-05
4.65919e-05
4.65904e-05
4.6591e-05
4.9776e-05
4.97972e-05
4.97607e-05
4.65896e-05
4.659e-05
4.65875e-05
4.65879e-05
4.97978e-05
4.97604e-05
4.6589e-05
4.65895e-05
4.65868e-05
4.65874e-05
4.65927e-05
4.65888e-05
4.65912e-05
4.97909e-05
4.97637e-05
4.65923e-05
4.65899e-05
4.65906e-05
4.97765e-05
4.97849e-05
4.97674e-05
4.65895e-05
4.659e-05
4.65874e-05
4.6588e-05
4.97844e-05
4.97699e-05
4.6589e-05
4.65895e-05
4.65868e-05
4.65874e-05
4.65932e-05
4.65885e-05
4.65905e-05
4.9785e-05
4.97731e-05
4.65927e-05
4.659e-05
4.65902e-05
4.97665e-05
4.97876e-05
4.9774e-05
4.65901e-05
4.65906e-05
4.65868e-05
4.65873e-05
4.97898e-05
4.97735e-05
4.65894e-05
4.65899e-05
4.65865e-05
4.65871e-05
4.65935e-05
4.65881e-05
4.659e-05
4.97926e-05
4.9775e-05
4.6593e-05
4.65896e-05
4.65896e-05
4.97642e-05
4.97943e-05
4.9774e-05
4.65905e-05
4.6591e-05
4.65869e-05
4.65873e-05
4.97949e-05
4.97749e-05
4.65901e-05
4.65907e-05
4.65862e-05
4.65867e-05
4.65938e-05
4.6588e-05
4.65899e-05
4.9798e-05
4.97715e-05
4.65935e-05
4.65891e-05
4.65891e-05
4.97686e-05
4.97984e-05
4.97677e-05
4.65917e-05
4.6592e-05
4.65867e-05
4.65871e-05
4.97985e-05
4.97672e-05
4.65912e-05
4.65918e-05
4.65861e-05
4.65866e-05
4.65948e-05
4.6588e-05
4.659e-05
4.97981e-05
4.97638e-05
4.65941e-05
4.65892e-05
4.65894e-05
4.9776e-05
4.97952e-05
4.97618e-05
4.65936e-05
4.6594e-05
4.65794e-05
4.65796e-05
4.97955e-05
4.97586e-05
4.65928e-05
4.65934e-05
4.6579e-05
4.65794e-05
4.65965e-05
4.65805e-05
4.65827e-05
4.9791e-05
4.97601e-05
4.65959e-05
4.65815e-05
4.6582e-05
4.97716e-05
4.97849e-05
4.95175e-05
4.65825e-05
4.65825e-05
4.63535e-05
4.6354e-05
4.97799e-05
4.95197e-05
4.65813e-05
4.65825e-05
4.63552e-05
4.63525e-05
4.65856e-05
4.63572e-05
4.63562e-05
4.97809e-05
4.95196e-05
4.65844e-05
4.63566e-05
4.63573e-05
4.95212e-05
4.92795e-05
4.52969e-05
4.5297e-05
4.92779e-05
4.52989e-05
4.52955e-05
3.20059e-05
3.20051e-05
3.20074e-05
4.52992e-05
4.92777e-05
4.53009e-05
3.16404e-06
4.27964e-07
2.03481e-06
2.0321e-06
1.03077e-07
3.41627e-07
4.61608e-07
1.12025e-06
1.09706e-07
3.06799e-07
1.15125e-06
8.02167e-07
3.58966e-07
3.7774e-07
2.66402e-07
2.99432e-07
4.9504e-06
2.67394e-07
6.64628e-06
1.41026e-05
2.16959e-05
3.00315e-07
4.95325e-06
2.66422e-07
6.63759e-06
1.09903e-06
1.10194e-06
1.0984e-06
1.08056e-06
1.08558e-06
1.08869e-06
1.08473e-06
1.04992e-07
7.1819e-07
5.01453e-07
3.50894e-07
1.03003e-07
6.85153e-07
4.95754e-07
1.40551e-05
2.17187e-05
1.01723e-07
5.19771e-07
9.55365e-07
3.23358e-07
1.0362e-07
5.14394e-07
8.92491e-07
1.90354e-06
1.89433e-06
3.42677e-07
1.87774e-06
1.87074e-06
4.90581e-07
9.77425e-06
4.05059e-07
1.24914e-05
3.69104e-05
4.67344e-05
4.99267e-07
9.75367e-06
3.97353e-07
1.25184e-05
1.08948e-06
1.0927e-06
1.08862e-06
1.0973e-06
1.1028e-06
1.10761e-06
1.10171e-06