/*--------------------------------*- C++ -*----------------------------------*\
| =========                 |                                                 |
| \\      /  F ield         | OpenFOAM: The Open Source CFD Toolbox           |
|  \\    /   O peration     | Version:  v1906                                 |
|   \\  /    A nd           | Web:      www.OpenFOAM.com                      |
|    \\/     M anipulation  |                                                 |
\*---------------------------------------------------------------------------*/
FoamFile
{
    version     2.0;
    format      ascii;
    class       volScalarField;
    location    "225";
    object      nut;
}
// * * * * * * * * * * * * * * * * * * * * * * * * * * * * * * * * * * * * * //

dimensions      [0 2 -1 0 0 0 0];


internalField   nonuniform List<scalar> 
171728
(
1.31749e-05
2.37939e-06
2.30117e-06
2.22888e-06
1.30702e-05
2.39937e-06
1.95001e-06
2.20767e-06
1.33792e-05
2.42279e-06
1.76306e-06
2.21191e-06
1.36879e-05
2.44184e-06
1.6938e-06
2.22982e-06
1.39925e-05
2.45981e-06
1.63072e-06
2.22872e-06
1.42937e-05
2.48306e-06
1.68033e-06
2.23858e-06
1.45957e-05
2.48267e-06
1.94161e-06
2.27887e-06
1.48956e-05
2.47175e-06
2.75618e-06
2.34638e-06
1.52318e-05
2.49029e-06
4.3154e-06
2.39714e-06
1.55436e-05
2.51037e-06
5.93297e-06
2.3752e-06
1.58556e-05
2.50203e-06
6.48552e-06
2.33004e-06
1.61673e-05
2.49653e-06
4.88146e-06
2.28029e-06
1.649e-05
2.48616e-06
3.24784e-06
2.2183e-06
1.67908e-05
2.45271e-06
2.59241e-06
2.08611e-06
1.70657e-05
2.40535e-06
2.53404e-06
1.8969e-06
1.72916e-05
2.36581e-06
2.44291e-06
1.72225e-06
1.76102e-05
2.3696e-06
2.32543e-06
1.57243e-06
1.79085e-05
2.25358e-06
2.28501e-06
1.45785e-06
1.8216e-05
2.3379e-06
2.28179e-06
1.4491e-06
1.85072e-05
2.38562e-06
2.45474e-06
1.73289e-06
1.87502e-05
2.39982e-06
2.36319e-06
1.44108e-06
1.90261e-05
2.73379e-06
2.87339e-06
3.68618e-06
1.93104e-05
3.55747e-06
3.0732e-06
3.5098e-06
1.9306e-05
4.07666e-06
4.55691e-06
6.79663e-06
1.97433e-05
5.51183e-06
4.76841e-06
6.83195e-06
1.95134e-05
5.58118e-06
6.96482e-06
1.60857e-05
1.98134e-05
9.19011e-06
8.09395e-06
1.66395e-05
1.97786e-05
1.06139e-05
1.11812e-05
2.93094e-05
1.95569e-05
1.25651e-05
1.26804e-05
3.04493e-05
1.96471e-05
1.6474e-05
1.62242e-05
3.83526e-05
1.94502e-05
1.96884e-05
2.00833e-05
4.72984e-05
1.96196e-05
2.36989e-05
2.38904e-05
5.31233e-05
1.95065e-05
2.87827e-05
2.85361e-05
6.02491e-05
1.98254e-05
3.25352e-05
3.36138e-05
6.58507e-05
2.02782e-05
3.85897e-05
3.83608e-05
7.15885e-05
2.08151e-05
4.36532e-05
4.40585e-05
7.60998e-05
2.19455e-05
5.00276e-05
4.95308e-05
8.09915e-05
2.28668e-05
5.57828e-05
5.60711e-05
8.54022e-05
2.49349e-05
6.26983e-05
6.18295e-05
8.96983e-05
2.70455e-05
6.83318e-05
6.82167e-05
9.39453e-05
2.98818e-05
7.6464e-05
7.43328e-05
9.79966e-05
3.26782e-05
8.14971e-05
8.12534e-05
0.00010243
3.61101e-05
8.80426e-05
8.7062e-05
0.000106148
4.05343e-05
9.39962e-05
9.36232e-05
0.000111146
4.42158e-05
9.92321e-05
9.99663e-05
0.000114878
5.12419e-05
0.000107099
0.000107158
0.000119414
5.32813e-05
0.000109582
0.000109615
0.000120233
6.113e-05
0.000120865
0.000121038
0.000128578
8.03627e-05
0.000136846
0.00013694
0.000139844
9.20171e-05
0.000141361
0.000141417
0.000143555
9.11781e-05
0.000136805
0.000136837
0.000139333
7.22151e-05
0.000123593
0.00012363
0.000129161
6.00475e-05
0.000117851
0.00011789
0.000124807
6.04682e-05
0.000120211
0.000120232
0.000125274
7.863e-05
0.000133935
0.000133948
0.000134194
0.00011244
0.000153834
0.000153842
0.000147968
0.000147488
0.000170347
0.00017035
0.000159192
0.000172129
0.000180257
0.000180258
0.000165797
0.000185131
0.000184896
0.000184894
0.000168791
0.00019087
0.000186857
0.000186852
0.000170063
0.000193195
0.000187644
0.000187638
0.000170583
0.000193766
0.000187784
0.000187779
0.000170754
0.000193779
0.000187718
0.000187715
0.000170609
0.000193913
0.000187822
0.000187816
0.000170739
0.0001939
0.000187784
0.000187779
0.000170743
0.000193877
0.00018777
0.000187766
0.000170636
0.000193899
0.000187805
0.000187799
0.000170782
0.000193884
0.000187771
0.000187766
0.000170629
0.000193891
0.000187796
0.000187791
0.000170772
0.000193885
0.000187784
0.000187778
0.000170637
0.000193886
0.000187785
0.000187781
0.000170762
0.000193886
0.000187787
0.000187781
0.000170683
0.000193885
0.000187786
0.000187781
0.000170682
0.000193886
0.000187787
0.00018778
0.000170759
0.000193886
0.00018779
0.000187785
0.000170695
0.000193887
0.000187789
0.000187784
0.000170653
0.000193887
0.000187784
0.000187778
0.000170695
0.000193887
0.00018779
0.000187784
0.000170764
0.000193886
0.000187792
0.000187785
0.000170709
0.000193888
0.000187787
0.000187781
0.000170667
0.000193889
0.000187787
0.000187781
0.000170657
0.000193889
0.00018779
0.000187784
0.00017077
0.00019389
0.000187789
0.000187783
0.000170689
0.000193889
0.000187789
0.00018778
0.000170667
0.000193888
0.000187791
0.000187784
0.000170757
0.000193887
0.000187787
0.000187779
0.000170719
0.000193887
0.000187786
0.000187781
0.000170651
0.000193888
0.000187789
0.000187782
0.000170721
0.000193888
0.000187789
0.00018778
0.000170758
0.000193888
0.000187789
0.000187783
0.00017071
0.000193888
0.00018779
0.000187785
0.000170658
0.000193888
0.000187793
0.000187786
0.000170672
0.000193889
0.000187801
0.000187793
0.00017072
0.000193972
0.000187762
0.000187757
0.000170742
0.000195042
0.00018819
0.000188185
0.000173111
2.20613e-06
2.51223e-06
2.48682e-06
2.17067e-06
2.55139e-06
2.5364e-06
1.36447e-05
1.36711e-05
1.37068e-05
1.37154e-05
2.46769e-06
2.57896e-06
2.28315e-06
2.19626e-06
2.45653e-06
2.25188e-06
2.17918e-06
2.16198e-06
2.42146e-06
2.44401e-06
2.42748e-06
2.44043e-06
2.14733e-06
2.14752e-06
2.39709e-06
2.46302e-06
2.41098e-06
2.45314e-06
2.37928e-06
2.38994e-06
2.40365e-06
2.27085e-06
2.26017e-06
2.41142e-06
2.01207e-06
2.3991e-06
2.21412e-06
2.1392e-06
2.15534e-06
2.4333e-06
2.44364e-06
2.44971e-06
2.45222e-06
2.12719e-06
2.1496e-06
2.42345e-06
2.45499e-06
2.47394e-06
2.46221e-06
2.41649e-06
2.41773e-06
2.45611e-06
2.25044e-06
2.23544e-06
2.40186e-06
1.79716e-06
2.41074e-06
2.21127e-06
2.13924e-06
2.19195e-06
2.45481e-06
2.45772e-06
2.46818e-06
2.48449e-06
2.13146e-06
2.16015e-06
2.4948e-06
2.46666e-06
2.55399e-06
2.47959e-06
2.46868e-06
2.43653e-06
2.48497e-06
2.22923e-06
2.18365e-06
2.41316e-06
1.7071e-06
2.42158e-06
2.23331e-06
2.18418e-06
2.26309e-06
2.47296e-06
2.49721e-06
2.49101e-06
2.5238e-06
2.14402e-06
2.17731e-06
2.57279e-06
2.48472e-06
2.64247e-06
2.50268e-06
2.48936e-06
2.45393e-06
2.50461e-06
2.1727e-06
2.11602e-06
2.4258e-06
1.64259e-06
2.44423e-06
2.24414e-06
2.25348e-06
2.2985e-06
2.49604e-06
2.52794e-06
2.50861e-06
2.53616e-06
2.16079e-06
2.17701e-06
2.66701e-06
2.5103e-06
2.68426e-06
2.52407e-06
2.51413e-06
2.47621e-06
2.54406e-06
2.10436e-06
2.0683e-06
2.45275e-06
1.64619e-06
2.4819e-06
2.25407e-06
2.27994e-06
2.28423e-06
2.51712e-06
2.54373e-06
2.54763e-06
2.57224e-06
2.15742e-06
2.16757e-06
2.66251e-06
2.52829e-06
2.54398e-06
2.54252e-06
2.55648e-06
2.48726e-06
2.59239e-06
2.06348e-06
2.1063e-06
2.49069e-06
1.84662e-06
2.52272e-06
2.28802e-06
2.26075e-06
2.24282e-06
2.55595e-06
2.5782e-06
2.56544e-06
2.58575e-06
2.14894e-06
2.16269e-06
2.50592e-06
2.5472e-06
2.41146e-06
2.55464e-06
2.60356e-06
2.47269e-06
2.66518e-06
2.11783e-06
2.31804e-06
2.53287e-06
2.48229e-06
2.55225e-06
2.35281e-06
2.21345e-06
2.16937e-06
2.56649e-06
2.58183e-06
2.56219e-06
2.57854e-06
2.14757e-06
2.18191e-06
2.38823e-06
2.55671e-06
2.34999e-06
2.56536e-06
2.68546e-06
2.48265e-06
2.7528e-06
2.32667e-06
2.54739e-06
2.55413e-06
3.86874e-06
2.56613e-06
2.41065e-06
2.14869e-06
2.16106e-06
2.56266e-06
2.57729e-06
2.56254e-06
2.56683e-06
2.17067e-06
2.19738e-06
2.35202e-06
2.57117e-06
2.37183e-06
2.57578e-06
2.76789e-06
2.50956e-06
2.79623e-06
2.5529e-06
2.74002e-06
2.5671e-06
5.60882e-06
2.56348e-06
2.39785e-06
2.14794e-06
2.15601e-06
2.56557e-06
2.5672e-06
2.55946e-06
2.55071e-06
2.18281e-06
2.17276e-06
2.37985e-06
2.57521e-06
2.38717e-06
2.55715e-06
2.81627e-06
2.50442e-06
2.86852e-06
2.72905e-06
2.73891e-06
2.55434e-06
6.42738e-06
2.53892e-06
2.35306e-06
2.14157e-06
2.09952e-06
2.55476e-06
2.54334e-06
2.53169e-06
2.51896e-06
2.15272e-06
2.10524e-06
2.38102e-06
2.54855e-06
2.33836e-06
2.5188e-06
2.88789e-06
2.49497e-06
2.98639e-06
2.68314e-06
2.33651e-06
2.53394e-06
5.40384e-06
2.52072e-06
2.29951e-06
2.08125e-06
2.00111e-06
2.52581e-06
2.50815e-06
2.50728e-06
2.49253e-06
2.08813e-06
2.04367e-06
2.32214e-06
2.50703e-06
2.27418e-06
2.48797e-06
3.02584e-06
2.49356e-06
3.14191e-06
2.26833e-06
2.08866e-06
2.5234e-06
3.56942e-06
2.51934e-06
2.24239e-06
1.97853e-06
1.88715e-06
2.5018e-06
2.48535e-06
2.48013e-06
2.48415e-06
2.02332e-06
1.97341e-06
2.25705e-06
2.47708e-06
2.21737e-06
2.45202e-06
3.1705e-06
2.46303e-06
3.20841e-06
2.05982e-06
1.9497e-06
2.51711e-06
2.6663e-06
2.51102e-06
2.12041e-06
1.85988e-06
1.78201e-06
2.4747e-06
2.48752e-06
2.45937e-06
2.48129e-06
1.94893e-06
1.88803e-06
2.21434e-06
2.44632e-06
2.18035e-06
2.42004e-06
3.20537e-06
2.42164e-06
3.11348e-06
1.92447e-06
1.85542e-06
2.5018e-06
2.52421e-06
2.47481e-06
1.9384e-06
1.7485e-06
1.65843e-06
2.44571e-06
2.47309e-06
2.41427e-06
2.47593e-06
1.85576e-06
1.80501e-06
2.16774e-06
2.41399e-06
2.13825e-06
2.37786e-06
3.05636e-06
2.38373e-06
2.75913e-06
1.82467e-06
1.72701e-06
2.46559e-06
2.48289e-06
2.4326e-06
1.76381e-06
1.61912e-06
1.56314e-06
2.38847e-06
2.45154e-06
2.38613e-06
2.40437e-06
1.76695e-06
1.64939e-06
2.10684e-06
2.3641e-06
2.07809e-06
2.34431e-06
2.64495e-06
2.33327e-06
2.39991e-06
1.69419e-06
1.63169e-06
2.41689e-06
2.35294e-06
2.36317e-06
1.58266e-06
1.54435e-06
1.38656e-06
2.37236e-06
2.45023e-06
2.29596e-06
2.40974e-06
1.70874e-06
1.65439e-06
2.07287e-06
2.32388e-06
2.02814e-06
2.31713e-06
2.36149e-06
2.31766e-06
2.17079e-06
1.60929e-06
1.56681e-06
2.36426e-06
2.30145e-06
2.32246e-06
1.50035e-06
1.40368e-06
1.4861e-06
2.30113e-06
2.32337e-06
2.36234e-06
2.36427e-06
1.56013e-06
1.62666e-06
2.03163e-06
2.29957e-06
2.10351e-06
2.30699e-06
2.1151e-06
2.33589e-06
2.09146e-06
1.58532e-06
1.50324e-06
2.29805e-06
2.29645e-06
2.29543e-06
1.41168e-06
1.48256e-06
1.33928e-06
2.37044e-06
2.38294e-06
2.22333e-06
2.32463e-06
1.72169e-06
1.52301e-06
2.12674e-06
2.30131e-06
2.00249e-06
2.40146e-06
2.09131e-06
2.28063e-06
2.23132e-06
1.55873e-06
1.64e-06
2.3011e-06
2.36589e-06
2.40972e-06
1.65274e-06
1.36909e-06
2.11132e-06
2.37843e-06
2.43699e-06
2.49858e-06
2.46616e-06
1.57749e-06
2.10682e-06
2.12986e-06
2.47793e-06
2.2836e-06
2.32458e-06
2.34989e-06
2.3925e-06
2.2189e-06
1.81294e-06
1.67633e-06
2.4817e-06
2.31214e-06
2.30891e-06
1.57828e-06
1.98378e-06
2.90625e-06
2.39288e-06
2.44576e-06
2.87605e-06
2.82658e-06
1.9818e-06
3.07518e-06
2.23774e-06
2.40692e-06
2.69367e-06
2.80845e-06
2.1358e-06
2.79708e-06
2.91312e-06
1.56241e-06
3.30997e-06
2.28096e-06
2.80355e-06
3.04881e-06
3.6584e-06
3.19756e-06
3.04617e-06
2.95161e-06
2.76296e-06
2.96448e-06
3.5118e-06
3.15393e-06
4.11963e-06
2.73843e-06
2.88121e-06
2.74942e-06
3.18261e-06
2.91502e-06
3.39511e-06
2.77434e-06
3.26935e-06
3.81806e-06
3.00415e-06
3.08849e-06
2.88014e-06
2.67272e-06
3.48037e-06
6.539e-06
3.35667e-06
3.70274e-06
4.13833e-06
3.52961e-06
5.17453e-06
4.39872e-06
3.1758e-06
3.14095e-06
4.10126e-06
4.26466e-06
3.15166e-06
3.57241e-06
4.21711e-06
4.15274e-06
5.85244e-06
3.37076e-06
4.29494e-06
4.28721e-06
6.89204e-06
6.23161e-06
7.85997e-06
3.9417e-06
4.0022e-06
4.89801e-06
5.39618e-06
4.54673e-06
1.09401e-05
3.91254e-06
4.53321e-06
4.58094e-06
4.20362e-06
4.22991e-06
5.20266e-06
3.94586e-06
7.22077e-06
6.491e-06
4.23207e-06
4.19605e-06
4.13049e-06
5.56286e-06
1.17146e-05
1.36191e-05
6.19559e-06
5.72261e-06
6.47712e-06
5.47709e-06
1.09192e-05
1.02498e-05
5.95165e-06
4.80359e-06
6.37781e-06
7.17356e-06
5.04064e-06
5.42886e-06
7.10562e-06
6.1824e-06
1.69133e-05
5.32473e-06
7.16327e-06
7.0819e-06
1.66406e-05
1.20636e-05
1.92691e-05
6.01054e-06
5.44362e-06
8.16453e-06
8.63467e-06
1.01528e-05
1.9471e-05
5.94776e-06
6.97863e-06
8.0613e-06
6.6117e-06
6.77016e-06
8.50809e-06
6.6145e-06
1.66802e-05
1.19736e-05
6.75007e-06
6.53678e-06
6.99538e-06
1.17315e-05
2.34707e-05
2.61538e-05
9.14484e-06
9.31009e-06
1.02521e-05
1.00961e-05
2.29826e-05
2.57837e-05
8.87382e-06
8.14714e-06
1.00923e-05
1.10924e-05
8.58704e-06
1.01945e-05
1.03071e-05
1.41859e-05
3.07927e-05
8.78773e-06
1.11288e-05
1.04656e-05
2.99008e-05
2.5657e-05
2.95495e-05
1.06344e-05
1.05603e-05
1.2047e-05
1.19386e-05
2.53807e-05
2.91494e-05
1.0658e-05
1.1179e-05
1.19487e-05
1.20488e-05
1.05514e-05
1.19424e-05
1.22272e-05
3.11371e-05
2.81306e-05
1.07036e-05
1.1988e-05
1.2288e-05
2.85469e-05
3.07488e-05
3.71182e-05
1.26804e-05
1.25332e-05
1.5297e-05
1.54502e-05
3.05561e-05
3.74099e-05
1.24446e-05
1.27284e-05
1.5322e-05
1.54021e-05
1.2663e-05
1.55059e-05
1.50125e-05
2.89292e-05
3.75014e-05
1.28075e-05
1.52096e-05
1.51347e-05
3.68321e-05
3.91697e-05
4.57127e-05
1.63435e-05
1.6374e-05
1.90049e-05
1.88424e-05
3.93856e-05
4.57281e-05
1.64924e-05
1.64267e-05
1.87021e-05
1.91662e-05
1.61279e-05
1.87844e-05
1.88232e-05
3.94012e-05
4.5953e-05
1.62291e-05
1.92539e-05
1.90605e-05
4.59104e-05
4.67117e-05
5.18523e-05
1.97033e-05
1.99142e-05
2.27193e-05
2.2723e-05
4.69155e-05
5.19822e-05
1.92966e-05
2.00088e-05
2.29789e-05
2.29825e-05
1.97078e-05
2.26899e-05
2.2687e-05
4.72246e-05
5.21408e-05
1.98642e-05
2.27242e-05
2.27069e-05
5.17715e-05
5.36015e-05
5.89913e-05
2.39975e-05
2.34977e-05
2.73467e-05
2.74605e-05
5.34388e-05
5.90428e-05
2.43896e-05
2.41273e-05
2.68915e-05
2.73744e-05
2.3658e-05
2.75812e-05
2.70947e-05
5.35416e-05
5.8988e-05
2.38173e-05
2.74885e-05
2.73634e-05
5.88703e-05
6.00147e-05
6.43371e-05
2.82815e-05
2.87554e-05
3.16069e-05
3.12387e-05
6.03929e-05
6.41921e-05
2.76924e-05
2.83553e-05
3.18506e-05
3.23716e-05
2.83443e-05
3.13756e-05
3.18045e-05
6.03217e-05
6.4928e-05
2.84852e-05
3.23058e-05
3.18411e-05
6.46328e-05
6.57897e-05
7.07347e-05
3.31816e-05
3.26211e-05
3.76804e-05
3.76803e-05
6.52676e-05
7.0495e-05
3.34644e-05
3.38751e-05
3.73731e-05
3.70369e-05
3.30591e-05
3.71375e-05
3.72262e-05
6.61959e-05
7.02112e-05
3.31856e-05
3.69051e-05
3.7461e-05
7.0457e-05
7.17227e-05
7.48221e-05
3.85563e-05
3.87394e-05
4.21291e-05
4.2123e-05
7.17553e-05
7.50559e-05
3.84193e-05
3.82021e-05
4.21188e-05
4.31517e-05
3.8555e-05
4.23674e-05
4.25542e-05
7.12732e-05
7.55263e-05
3.87213e-05
4.3106e-05
4.24763e-05
7.5055e-05
7.60565e-05
8.0276e-05
4.4026e-05
4.38466e-05
4.86568e-05
4.89387e-05
7.62486e-05
8.0417e-05
4.36662e-05
4.45067e-05
4.84897e-05
4.79148e-05
4.38509e-05
4.83808e-05
4.81192e-05
7.65393e-05
7.94699e-05
4.37675e-05
4.74969e-05
4.81049e-05
7.98945e-05
8.11265e-05
8.44001e-05
4.97046e-05
5.02136e-05
5.39399e-05
5.37558e-05
8.12713e-05
8.40001e-05
4.9907e-05
4.95796e-05
5.3588e-05
5.48786e-05
4.98946e-05
5.42363e-05
5.44518e-05
8.06849e-05
8.50119e-05
4.98213e-05
5.50129e-05
5.4277e-05
8.45151e-05
8.55708e-05
8.90132e-05
5.5805e-05
5.54354e-05
6.07062e-05
6.13478e-05
8.50977e-05
8.94844e-05
5.50942e-05
5.62008e-05
6.07007e-05
6.03489e-05
5.55959e-05
6.12028e-05
6.01289e-05
8.57814e-05
8.84042e-05
5.5539e-05
5.99209e-05
6.03246e-05
8.86589e-05
8.98071e-05
9.28609e-05
6.19244e-05
6.27277e-05
6.64571e-05
6.54916e-05
9.03347e-05
9.24851e-05
6.24297e-05
6.21103e-05
6.70603e-05
6.68902e-05
6.18794e-05
6.66054e-05
6.65659e-05
8.95323e-05
9.32898e-05
6.19967e-05
6.70361e-05
6.64024e-05
9.30828e-05
9.39265e-05
9.74896e-05
6.84082e-05
6.69564e-05
7.34914e-05
7.3393e-05
9.34023e-05
9.80856e-05
6.86509e-05
6.81091e-05
7.34019e-05
7.25634e-05
6.82203e-05
7.46345e-05
7.32533e-05
9.40365e-05
9.67849e-05
6.80176e-05
7.23811e-05
7.29646e-05
9.71511e-05
9.82337e-05
0.000100899
7.48083e-05
7.52982e-05
7.87888e-05
7.93355e-05
9.89694e-05
0.00010105
7.49366e-05
7.45118e-05
7.96385e-05
7.98556e-05
7.46662e-05
8.01993e-05
7.93596e-05
9.78216e-05
0.000101713
7.44246e-05
7.97476e-05
7.94112e-05
0.0001014
0.000101792
0.000105526
8.03438e-05
8.09341e-05
8.50063e-05
8.64862e-05
0.000101762
0.000105914
8.1357e-05
8.14116e-05
8.63654e-05
8.58771e-05
8.12684e-05
8.62608e-05
8.56772e-05
0.00010251
0.000105243
8.13295e-05
8.54787e-05
8.54695e-05
0.000105502
0.000106482
0.000110158
8.67283e-05
8.82271e-05
9.2148e-05
9.25631e-05
0.000106923
0.000109728
8.81215e-05
8.75068e-05
9.31635e-05
9.23075e-05
8.7047e-05
9.27524e-05
9.2479e-05
0.000106087
0.000109622
8.67733e-05
9.20053e-05
9.22657e-05
0.000110047
0.000110987
0.000114248
9.38536e-05
9.38994e-05
9.84414e-05
9.81834e-05
0.000110377
0.000113566
9.45955e-05
9.38175e-05
9.84576e-05
9.81982e-05
9.42946e-05
9.73326e-05
9.83269e-05
0.000110495
0.000114004
9.41374e-05
9.8016e-05
9.81528e-05
0.000114166
0.000115207
0.00011903
0.000100483
0.000100297
0.000106737
0.000106666
0.000114586
0.000118778
0.000100426
0.000100244
0.000106846
0.000106257
0.000100228
0.000105923
0.000107096
0.000114958
0.000118648
9.99885e-05
0.000106119
0.000106845
0.000118825
0.000119469
0.000119752
0.00010778
0.000107589
0.000109272
0.000108736
0.000119259
0.000119703
0.000107806
0.000107119
0.000108731
0.000108323
0.000108256
0.000108651
0.000109195
0.000119094
0.000119568
0.000108126
0.000108662
0.000109395
0.000119945
0.000120093
0.000126869
0.000110223
0.00010968
0.000117485
0.000117031
0.000120094
0.000126882
0.000109579
0.000109312
0.000116772
0.00011694
0.000109866
0.000116812
0.000116482
0.000119993
0.00012689
0.00011008
0.000116958
0.000116655
0.000126527
0.000128973
0.000138571
0.000121487
0.000121078
0.000133967
0.000133752
0.000128975
0.000138595
0.000120816
0.000121106
0.000133577
0.000133978
0.000120421
0.00013374
0.000133341
0.000129012
0.000138706
0.000120579
0.000133864
0.000133419
0.000138344
0.00013998
0.00014334
0.000136953
0.000136786
0.000140959
0.000140824
0.000140016
0.000143401
0.000136648
0.00013701
0.000140729
0.000140982
0.000136554
0.000140971
0.000140939
0.00014012
0.000143465
0.000136611
0.000141037
0.000140992
0.000143468
0.000143411
0.000140041
0.000141314
0.000141194
0.000140465
0.000140364
0.000143471
0.000140074
0.000141089
0.000141362
0.000140254
0.000140353
0.000141338
0.000140512
0.000140704
0.000143532
0.000140046
0.000141386
0.000140547
0.00014078
0.000140307
0.000139083
0.000129644
0.000136798
0.000136689
0.00012631
0.000126174
0.000139105
0.000129592
0.000136602
0.000136637
0.000126141
0.000126129
0.000137031
0.000126214
0.000126342
0.000139075
0.000129583
0.000137115
0.00012625
0.000126407
0.000129709
0.000129108
0.000125129
0.000123704
0.00012357
0.000118791
0.000118679
0.000129056
0.000125075
0.000123547
0.000123531
0.000118671
0.000118661
0.000123697
0.000118666
0.000118723
0.000129048
0.000125087
0.000123754
0.000118705
0.000118753
0.000125113
0.000124827
0.000124803
0.000117973
0.000117868
0.000118655
0.000118623
0.000124773
0.00012479
0.000117861
0.000117854
0.000118614
0.000118646
0.000117899
0.000118603
0.000118603
0.000124786
0.00012481
0.000117921
0.000118628
0.000118588
0.000124788
0.000125284
0.000132095
0.000120253
0.000120223
0.000129496
0.000129482
0.000125275
0.000132093
0.000120213
0.000120246
0.000129472
0.000129499
0.000120219
0.000129483
0.000129492
0.000125294
0.000132106
0.00012021
0.000129498
0.000129488
0.000132099
0.00013419
0.000145746
0.000133945
0.000133934
0.000148898
0.000148895
0.00013419
0.000145747
0.000133927
0.000133949
0.000148894
0.000148901
0.000133945
0.000148902
0.000148906
0.0001342
0.000145751
0.000133943
0.000148911
0.000148909
0.000145752
0.000147964
0.000157685
0.000153829
0.000153827
0.000166803
0.000166803
0.000147965
0.000157687
0.000153831
0.000153831
0.000166812
0.000166798
0.000153839
0.000166816
0.000166812
0.000147967
0.000157683
0.000153844
0.00016682
0.000166821
0.000157688
0.00015919
0.000165032
0.000170334
0.000170333
0.000178355
0.000178352
0.000159191
0.000165034
0.000170344
0.000170327
0.000178366
0.000178345
0.000170342
0.000178373
0.000178363
0.000159186
0.000165028
0.000170352
0.000178374
0.000178375
0.000165035
0.000165794
0.000168508
0.000180239
0.000180235
0.000184056
0.00018405
0.000165797
0.000168512
0.000180251
0.000180229
0.000184068
0.000184045
0.000180247
0.000184079
0.000184065
0.00016579
0.000168506
0.000180259
0.000184078
0.000184079
0.000168514
0.000168786
0.000169987
0.000184871
0.000184866
0.000186483
0.000186478
0.00016879
0.000169993
0.000184884
0.000184861
0.000186497
0.000186472
0.000184881
0.000186511
0.000186493
0.000168784
0.000169985
0.000184895
0.000186507
0.000186508
0.000169993
0.000170057
0.000170617
0.000186828
0.000186823
0.000187492
0.000187489
0.000170063
0.000170624
0.000186843
0.000186817
0.000187508
0.000187481
0.000186838
0.000187523
0.000187502
0.000170055
0.000170614
0.000186854
0.000187517
0.000187519
0.000170622
0.000170578
0.000170835
0.000187613
0.00018761
0.000187752
0.000187748
0.000170584
0.000170842
0.000187629
0.000187602
0.000187767
0.000187739
0.000187623
0.000187781
0.000187762
0.000170575
0.000170831
0.00018764
0.000187776
0.000187778
0.000170839
0.00017075
0.000170724
0.000187755
0.000187751
0.000187697
0.000187693
0.000170757
0.000170729
0.00018777
0.000187743
0.000187712
0.000187685
0.000187765
0.000187726
0.000187708
0.000170746
0.000170722
0.000187781
0.000187722
0.000187724
0.000170731
0.000170603
0.000170808
0.00018769
0.000187686
0.000187773
0.00018777
0.000170607
0.000170816
0.000187705
0.000187678
0.000187788
0.000187761
0.000187701
0.000187803
0.000187783
0.0001706
0.000170806
0.000187717
0.000187798
0.000187799
0.000170813
0.000170733
0.000170857
0.000187792
0.000187789
0.00018778
0.000187775
0.000170741
0.000170861
0.000187807
0.000187779
0.000187795
0.000187766
0.000187801
0.000187808
0.000187787
0.000170731
0.000170851
0.000187817
0.000187802
0.000187803
0.000170858
0.000170741
0.000170719
0.000187755
0.000187751
0.000187736
0.000187733
0.000170745
0.000170725
0.000187771
0.000187742
0.000187752
0.000187724
0.000187764
0.000187765
0.000187746
0.000170735
0.000170716
0.00018778
0.000187761
0.000187764
0.000170725
0.000170628
0.000170866
0.000187739
0.000187736
0.000187774
0.00018777
0.000170635
0.000170874
0.000187754
0.000187727
0.000187789
0.000187762
0.00018775
0.000187803
0.000187784
0.000170627
0.000170865
0.000187768
0.000187798
0.0001878
0.000170873
0.000170777
0.000170741
0.000187776
0.000187772
0.000187742
0.000187739
0.000170783
0.000170744
0.000187791
0.000187763
0.000187757
0.00018773
0.000187785
0.000187772
0.000187753
0.000170774
0.000170734
0.0001878
0.000187767
0.000187768
0.000170741
0.000170627
0.000170852
0.000187741
0.000187738
0.000187768
0.000187764
0.000170631
0.000170863
0.000187756
0.000187729
0.000187783
0.000187756
0.000187752
0.000187797
0.000187777
0.000170622
0.000170853
0.000187768
0.000187793
0.000187795
0.000170861
0.000170766
0.000170737
0.000187767
0.000187763
0.00018775
0.000187747
0.000170774
0.000170741
0.000187783
0.000187755
0.000187763
0.000187736
0.000187776
0.00018778
0.00018776
0.000170764
0.000170732
0.000187793
0.000187775
0.000187776
0.000170741
0.000170631
0.000170858
0.000187752
0.000187751
0.000187758
0.000187755
0.000170639
0.000170866
0.000187766
0.000187739
0.000187775
0.000187747
0.000187763
0.000187788
0.000187768
0.000170629
0.000170856
0.000187779
0.000187782
0.000187784
0.000170864
0.000170759
0.000170739
0.000187756
0.000187752
0.000187755
0.000187755
0.00017076
0.000170756
0.000187772
0.000187743
0.000187769
0.000187743
0.000187766
0.000187786
0.000187766
0.000170752
0.000170745
0.000187783
0.000187781
0.000187782
0.00017075
0.000170665
0.000170813
0.000187756
0.000187755
0.000187755
0.000187751
0.000170691
0.0001708
0.000187769
0.000187743
0.00018777
0.000187743
0.000187767
0.000187785
0.000187766
0.00017068
0.00017079
0.000187783
0.00018778
0.000187782
0.000170804
0.00017069
0.000170829
0.000187755
0.000187752
0.000187757
0.000187755
0.000170679
0.000170849
0.00018777
0.000187743
0.000187769
0.000187744
0.000187766
0.000187787
0.000187767
0.000170669
0.000170841
0.000187782
0.000187783
0.000187784
0.000170845
0.000170748
0.000170743
0.000187756
0.000187752
0.000187758
0.000187755
0.000170761
0.00017076
0.000187769
0.000187743
0.00018777
0.000187746
0.000187766
0.000187789
0.000187768
0.000170751
0.000170758
0.000187782
0.000187785
0.000187785
0.000170759
0.00017067
0.000170776
0.000187759
0.000187757
0.000187753
0.000187751
0.000170695
0.000170774
0.000187771
0.000187746
0.000187769
0.000187742
0.000187769
0.000187787
0.000187765
0.000170695
0.000170756
0.000187786
0.000187781
0.000187781
0.000170767
0.000170656
0.00017085
0.000187755
0.000187754
0.000187757
0.000187753
0.000170658
0.000170834
0.000187771
0.000187746
0.000187772
0.000187742
0.000187768
0.000187785
0.000187762
0.000170645
0.000170811
0.000187784
0.000187779
0.000187779
0.000170823
0.000170735
0.000170811
0.000187755
0.000187751
0.000187756
0.000187757
0.000170708
0.000170852
0.00018777
0.000187742
0.000187771
0.000187747
0.000187762
0.000187795
0.000187775
0.000170685
0.000170845
0.000187778
0.000187789
0.00018779
0.000170857
0.000170737
0.000170742
0.000187757
0.000187754
0.000187754
0.000187756
0.000170755
0.000170805
0.000187771
0.000187745
0.000187769
0.000187745
0.000187768
0.000187787
0.000187763
0.000170744
0.000170797
0.000187785
0.000187781
0.000187779
0.000170771
0.000170666
0.000170773
0.000187755
0.000187756
0.000187755
0.000187754
0.000170735
0.000170753
0.000187769
0.000187745
0.00018777
0.000187744
0.000187772
0.000187786
0.000187768
0.000170727
0.000170742
0.000187788
0.00018778
0.000187784
0.000170766
0.000170654
0.000170834
0.000187756
0.000187755
0.000187758
0.000187753
0.000170674
0.00017079
0.00018777
0.000187745
0.000187772
0.000187743
0.000187767
0.000187788
0.000187767
0.000170665
0.000170773
0.000187784
0.000187781
0.000187783
0.000170779
0.000170709
0.000170854
0.000187759
0.000187754
0.000187758
0.000187755
0.00017067
0.000170857
0.000187773
0.000187744
0.000187771
0.000187745
0.000187767
0.000187789
0.00018777
0.000170653
0.000170845
0.000187783
0.000187783
0.000187788
0.000170865
0.000170752
0.000170774
0.000187757
0.000187755
0.000187758
0.000187754
0.000170757
0.000170785
0.000187771
0.000187745
0.000187772
0.000187745
0.000187771
0.000187787
0.000187766
0.000170732
0.000170805
0.000187788
0.000187781
0.000187782
0.000170752
0.000170711
0.000170784
0.000187761
0.000187755
0.000187757
0.000187755
0.000170712
0.000170812
0.000187774
0.000187745
0.000187772
0.000187745
0.000187768
0.00018779
0.000187768
0.000170715
0.000170839
0.000187786
0.000187782
0.000187783
0.000170787
0.000170665
0.000170818
0.000187755
0.000187754
0.000187757
0.000187753
0.000170729
0.0001708
0.00018777
0.000187744
0.000187772
0.000187745
0.000187767
0.000187788
0.000187768
0.000170719
0.000170812
0.000187783
0.000187782
0.000187786
0.000170858
0.000170731
0.000170762
0.000187759
0.000187755
0.000187753
0.000187749
0.000170736
0.000170753
0.000187774
0.000187747
0.000187767
0.00018774
0.000187769
0.000187783
0.000187765
0.000170734
0.000170749
0.000187785
0.000187776
0.00018778
0.000170784
0.000170647
0.000170852
0.000187755
0.000187753
0.000187755
0.000187752
0.000170648
0.000170849
0.00018777
0.000187743
0.000187769
0.000187743
0.000187769
0.000187785
0.000187764
0.00017064
0.000170843
0.000187785
0.000187779
0.000187778
0.000170763
0.000170737
0.000170796
0.000187757
0.000187753
0.000187754
0.000187751
0.000170728
0.000170811
0.00018777
0.000187745
0.000187769
0.00018774
0.000187766
0.000187786
0.000187766
0.00017074
0.000170752
0.00018778
0.000187777
0.000187781
0.000170845
0.000170729
0.000170739
0.000187759
0.000187756
0.000187752
0.00018775
0.00017074
0.000170746
0.000187773
0.000187745
0.000187766
0.00018774
0.000187767
0.000187783
0.000187765
0.00017068
0.00017076
0.000187783
0.000187776
0.00018778
0.000170837
0.000170644
0.000170793
0.000187757
0.000187754
0.000187753
0.000187752
0.000170649
0.000170818
0.000187771
0.000187744
0.000187768
0.000187741
0.00018777
0.000187783
0.000187761
0.000170646
0.000170825
0.000187784
0.000187778
0.000187778
0.000170766
0.000170671
0.000170837
0.000187759
0.000187757
0.000187751
0.000187749
0.000170695
0.000170839
0.000187773
0.000187745
0.000187767
0.00018774
0.00018777
0.000187782
0.00018776
0.000170702
0.000170834
0.000187785
0.000187776
0.000187776
0.000170753
0.00017072
0.000170832
0.000187759
0.000187757
0.000187754
0.000187752
0.000170728
0.000170851
0.000187775
0.000187748
0.000187767
0.000187739
0.000187769
0.000187784
0.000187762
0.000170737
0.000170806
0.000187786
0.000187775
0.000187775
0.000170785
0.000170743
0.00017079
0.000187764
0.000187761
0.000187754
0.000187752
0.000170756
0.000170793
0.000187778
0.000187751
0.000187769
0.000187741
0.000187772
0.000187785
0.000187765
0.000170733
0.000170754
0.000187786
0.000187778
0.00018778
0.000170833
0.00017072
0.000170781
0.00018777
0.000187769
0.000187769
0.000187766
0.000170729
0.00017077
0.000187784
0.000187757
0.000187785
0.000187757
0.000187779
0.000187798
0.000187779
0.000170682
0.000170765
0.000187793
0.000187791
0.000187794
0.000170829
0.000170698
0.000171716
0.000187737
0.000187733
0.000189989
0.00018999
0.000170671
0.000171737
0.000187748
0.000187725
0.000190009
0.000189984
0.000187746
0.000190017
0.00019
0.000170663
0.00017173
0.000187758
0.000190011
0.000190017
0.000171734
0.0001731
0.000188168
0.000188166
0.000173093
0.000188185
0.00018816
0.000195044
0.000195045
0.000195055
0.000188176
0.000173086
0.000188192
3.99553e-05
4.21711e-06
2.56075e-05
2.55277e-05
6.38333e-07
2.46619e-06
1.72203e-06
1.41273e-05
6.55965e-07
2.23613e-06
1.4407e-05
4.81404e-06
2.26597e-06
1.7545e-06
1.72486e-06
1.0984e-06
1.34827e-05
1.06072e-06
1.52798e-05
1.09388e-05
1.32044e-05
1.09971e-06
1.34848e-05
1.07814e-06
1.52693e-05
1.32081e-05
1.32539e-05
1.32347e-05
1.29987e-05
1.30387e-05
1.30791e-05
1.30469e-05
6.60556e-07
5.39079e-07
5.71754e-06
2.37655e-06
6.29514e-07
6.58433e-07
5.66391e-06
1.09282e-05
1.32104e-05
6.06e-07
5.01078e-06
8.36684e-07
2.18294e-06
6.02694e-07
4.94558e-06
9.49709e-07
1.50382e-06
1.49766e-06
2.22638e-06
1.70965e-06
1.70707e-06
1.36195e-06
1.85131e-05
1.21663e-06
2.09263e-05
1.72055e-05
1.93588e-05
1.37408e-06
1.84897e-05
1.18939e-06
2.09482e-05
1.31111e-05
1.31456e-05
1.31199e-05
1.33037e-05