/*--------------------------------*- C++ -*----------------------------------*\
| =========                 |                                                 |
| \\      /  F ield         | OpenFOAM: The Open Source CFD Toolbox           |
|  \\    /   O peration     | Version:  v1906                                 |
|   \\  /    A nd           | Web:      www.OpenFOAM.com                      |
|    \\/     M anipulation  |                                                 |
\*---------------------------------------------------------------------------*/
FoamFile
{
    version     2.0;
    format      ascii;
    class       volScalarField;
    location    "225";
    object      p;
}
// * * * * * * * * * * * * * * * * * * * * * * * * * * * * * * * * * * * * * //

dimensions      [0 2 -2 0 0 0 0];


internalField   nonuniform List<scalar> 
171728
(
0.00353346
0.00353251
0.00353251
0.00353332
0.00349778
0.00349644
0.00349639
0.00349928
0.00346002
0.00345814
0.00345809
0.00346039
0.00341571
0.00341407
0.00341404
0.00341637
0.0033673
0.00336577
0.00336583
0.00336823
0.00331877
0.00331732
0.00331733
0.00331975
0.00327082
0.00326955
0.00326954
0.00327195
0.00322348
0.00322227
0.00322225
0.00322475
0.00317718
0.00317611
0.0031762
0.00317855
0.0031319
0.00313094
0.00313104
0.00313339
0.00308749
0.00308661
0.00308669
0.0030891
0.00304385
0.00304304
0.00304313
0.00304554
0.00300074
0.00299999
0.0030001
0.00300247
0.0029581
0.00295738
0.00295733
0.00295985
0.00291566
0.00291498
0.00291526
0.0029176
0.0028736
0.00287295
0.00287296
0.00287544
0.00283186
0.00283188
0.00283135
0.00283397
0.00279046
0.00278981
0.00279004
0.00279241
0.00274943
0.00274913
0.00274906
0.00275139
0.00270883
0.00270868
0.00270862
0.00271066
0.00266835
0.00266807
0.00266824
0.00267019
0.00262834
0.00262802
0.00262797
0.00263
0.00258862
0.0025885
0.00258829
0.00259061
0.0025491
0.00254911
0.002549
0.00255063
0.00250987
0.00250972
0.00250996
0.00251242
0.00247088
0.00247082
0.00247056
0.00247219
0.00243216
0.00243213
0.00243228
0.00243532
0.00239358
0.00239349
0.00239343
0.00239527
0.00235528
0.00235528
0.00235528
0.00235756
0.00231719
0.00231722
0.00231725
0.00231952
0.00227923
0.00227934
0.00227931
0.00228153
0.00224147
0.00224163
0.00224162
0.00224376
0.00220388
0.00220405
0.00220406
0.00220617
0.00216647
0.00216668
0.00216666
0.00216871
0.00212916
0.00212936
0.0021294
0.00213139
0.00209209
0.0020923
0.00209226
0.00209429
0.00205513
0.00205535
0.00205538
0.00205734
0.00201842
0.00201855
0.00201853
0.00202055
0.00198181
0.00198189
0.00198196
0.00198394
0.00194544
0.00194557
0.00194549
0.00194752
0.00190926
0.00190926
0.00190932
0.00191133
0.00187331
0.00187332
0.00187328
0.00187529
0.00183769
0.00183761
0.00183762
0.00183959
0.00180237
0.00180227
0.00180228
0.00180425
0.00176753
0.00176737
0.00176734
0.0017693
0.00173281
0.00173267
0.00173268
0.00173465
0.00169901
0.0016989
0.00169889
0.0017008
0.00166575
0.00166522
0.00166523
0.00166707
0.00163097
0.00163037
0.00163037
0.00163234
0.00159414
0.00159399
0.00159399
0.00159615
0.00155625
0.00155659
0.0015566
0.00155892
0.00151962
0.00152012
0.00152013
0.00152238
0.00148501
0.00148517
0.00148517
0.00148723
0.00145286
0.00145239
0.00145239
0.00145417
0.00142209
0.0014212
0.0014212
0.00142276
0.00139105
0.00139008
0.00139008
0.00139158
0.00135884
0.00135816
0.00135816
0.00135979
0.00132535
0.00132499
0.00132499
0.0013268
0.00129079
0.00129062
0.00129062
0.00129256
0.00125551
0.00125543
0.00125543
0.00125744
0.00121981
0.00121977
0.00121977
0.00122182
0.00118393
0.00118391
0.00118391
0.00118597
0.00114801
0.00114798
0.00114798
0.00115004
0.00111206
0.00111203
0.00111203
0.0011141
0.0010761
0.00107607
0.00107607
0.00107814
0.00104015
0.00104012
0.00104012
0.00104219
0.00100418
0.00100416
0.00100416
0.00100622
0.000968225
0.000968197
0.000968197
0.000970265
0.000932264
0.000932235
0.000932235
0.000934303
0.000896304
0.000896278
0.000896278
0.000898345
0.000860344
0.000860315
0.000860316
0.000862383
0.000824383
0.000824354
0.000824354
0.000826424
0.000788422
0.000788394
0.000788394
0.000790461
0.000752462
0.000752433
0.000752432
0.0007545
0.000716503
0.000716474
0.000716474
0.000718543
0.000680544
0.000680517
0.000680518
0.000682585
0.000644587
0.000644558
0.000644558
0.000646625
0.00060863
0.0006086
0.0006086
0.000610668
0.000572674
0.000572647
0.000572647
0.000574715
0.000536717
0.000536689
0.000536689
0.000538757
0.00050076
0.000500731
0.000500731
0.000502799
0.000464802
0.000464775
0.000464774
0.000466841
0.000428845
0.000428817
0.000428817
0.000430885
0.000392886
0.000392857
0.000392856
0.000394924
0.000356928
0.000356901
0.000356899
0.000358965
0.00032097
0.000320944
0.000320943
0.000323009
0.000285012
0.000284983
0.000284983
0.00028705
0.000249056
0.000249027
0.000249028
0.000251089
0.0002131
0.000213073
0.000213071
0.000215132
0.000177143
0.000177116
0.000177114
0.000179173
0.000141184
0.000141159
0.00014116
0.000143208
0.000105219
0.000105198
0.000105198
0.000107229
6.92579e-05
6.9235e-05
6.92333e-05
7.12299e-05
3.40878e-05
3.3522e-05
3.35193e-05
3.53554e-05
5.87991e-06
6.57718e-06
6.5768e-06
5.01723e-06
0.00353806
0.00353573
0.00353574
0.00353802
0.00353574
0.00353581
0.00354191
0.00354189
0.00354192
0.00354191
0.00353574
0.00353578
0.00353813
0.00353587
0.00353577
0.00353808
0.00353334
0.00350395
0.0035325
0.0035325
0.00350567
0.00350568
0.00353328
0.00350401
0.00353251
0.0035325
0.00350571
0.0035057
0.00353248
0.00350571
0.00350573
0.00353335
0.00350398
0.0035325
0.00350574
0.0035057
0.00350396
0.00349931
0.00346582
0.00349644
0.00349642
0.00346798
0.00346797
0.00349931
0.00346587
0.00349643
0.00349641
0.00346795
0.00346794
0.00349643
0.00346796
0.003468
0.00349927
0.00346585
0.00349642
0.00346806
0.00346799
0.00346584
0.00346037
0.0034226
0.00345812
0.00345811
0.00342566
0.00342569
0.00346041
0.00342262
0.00345812
0.00345812
0.00342566
0.00342565
0.00345809
0.00342566
0.00342566
0.0034604
0.00342259
0.00345808
0.00342571
0.00342566
0.0034226
0.00341637
0.00337471
0.00341408
0.00341405
0.00337798
0.003378
0.00341637
0.00337471
0.00341406
0.00341406
0.00337796
0.00337797
0.00341409
0.00337797
0.00337798
0.00341636
0.00337473
0.00341407
0.00337796
0.00337799
0.00337471
0.00336822
0.00332617
0.00336576
0.00336576
0.00332936
0.00332936
0.00336823
0.00332615
0.00336577
0.00336576
0.00332935
0.00332935
0.00336579
0.00332936
0.00332936
0.00336825
0.00332618
0.00336577
0.00332935
0.00332935
0.00332615
0.00331976
0.00327825
0.00331731
0.00331732
0.00328144
0.00328146
0.00331975
0.00327826
0.0033173
0.0033173
0.00328143
0.00328142
0.00331732
0.00328144
0.00328145
0.00331978
0.00327826
0.00331732
0.00328151
0.00328144
0.00327826
0.00327193
0.00323094
0.00326951
0.00326954
0.00323401
0.00323401
0.00327195
0.00323094
0.00326952
0.00326954
0.00323401
0.00323401
0.00326954
0.00323401
0.00323401
0.00327196
0.00323096
0.00326953
0.003234
0.00323401
0.00323095
0.00322474
0.0031846
0.00322227
0.00322227
0.00318755
0.00318752
0.00322473
0.00318461
0.00322227
0.00322228
0.00318755
0.00318753
0.00322228
0.00318752
0.00318754
0.00322476
0.0031846
0.00322229
0.00318751
0.00318756
0.0031846
0.00317855
0.0031393
0.00317609
0.00317611
0.00314216
0.00314216
0.00317858
0.00313927
0.0031761
0.00317612
0.00314217
0.00314216
0.0031761
0.00314215
0.00314213
0.00317858
0.00313929
0.0031761
0.00314218
0.00314216
0.0031393
0.00313338
0.00309488
0.00313091
0.00313093
0.00309762
0.00309768
0.00313336
0.00309489
0.00313092
0.00313093
0.00309762
0.00309768
0.00313094
0.00309769
0.00309761
0.0031334
0.00309478
0.00313093
0.00309769
0.00309761
0.00309488
0.00308908
0.00305122
0.00308659
0.00308662
0.00305387
0.00305391
0.00308908
0.00305122
0.00308658
0.00308656
0.00305386
0.00305398
0.00308662
0.0030539
0.00305393
0.00308899
0.00305111
0.00308664
0.00305396
0.0030539
0.00305122
0.00304555
0.00300818
0.00304311
0.00304303
0.00301071
0.00301074
0.00304553
0.00300813
0.00304307
0.0030431
0.00301074
0.00301085
0.00304309
0.00301075
0.00301082
0.00304542
0.00300815
0.00304311
0.0030108
0.0030108
0.00300809
0.00300259
0.00296556
0.00300016
0.00299998
0.00296806
0.00296803
0.00300248
0.00296548
0.00300006
0.00300006
0.00296806
0.00296823
0.00300008
0.00296804
0.00296815
0.00300246
0.00296557
0.00300007
0.00296822
0.00296817
0.00296542
0.00296004
0.00292302
0.00295755
0.00295738
0.00292567
0.00292564
0.0029599
0.00292312
0.00295753
0.00295742
0.00292563
0.00292578
0.00295744
0.00292565
0.00292584
0.00296
0.00292309
0.0029574
0.00292588
0.00292587
0.0029231
0.00291751
0.00288097
0.00291502
0.00291495
0.00288364
0.00288372
0.00291755
0.00288086
0.00291497
0.00291512
0.0028836
0.00288362
0.00291511
0.00288372
0.00288377
0.00291754
0.00288097
0.00291515
0.0028836
0.00288379
0.0028809
0.00287549
0.00283923
0.00287296
0.00287298
0.00284199
0.0028422
0.00287536
0.00283955
0.00287295
0.00287304
0.00284202
0.00284193
0.00287309
0.00284228
0.00284218
0.00287546
0.00283922
0.00287311
0.00284189
0.00284217
0.00283942
0.00283378
0.00279787
0.00283127
0.00283187
0.00280056
0.00279998
0.00283414
0.00279744
0.00283136
0.00283138
0.00280059
0.00280049
0.00283165
0.00280003
0.00280045
0.00283378
0.00279775
0.00283161
0.00280049
0.00280037
0.00279769
0.00279253
0.00275656
0.00279013
0.00278977
0.00275949
0.00275964
0.00279218
0.0027566
0.00279021
0.00279009
0.0027594
0.00275943
0.00279011
0.00275958
0.00275956
0.00279241
0.00275661
0.00279008
0.00275945
0.00275951
0.00275668
0.0027513
0.00271595
0.00274916
0.00274917
0.00271875
0.00271872
0.00275131
0.00271593
0.0027491
0.0027491
0.00271866
0.00271878
0.00274921
0.00271868
0.00271869
0.00275133
0.00271576
0.00274922
0.00271876
0.00271867
0.00271579
0.00271084
0.00267539
0.00270879
0.00270876
0.00267804
0.00267799
0.00271082
0.00267544
0.00270869
0.00270859
0.00267803
0.00267808
0.00270859
0.00267805
0.00267799
0.00271066
0.00267539
0.00270861
0.00267803
0.00267795
0.00267543
0.00267009
0.00263525
0.00266801
0.00266807
0.00263821
0.00263813
0.00267016
0.0026353
0.00266795
0.00266821
0.00263821
0.00263809
0.00266822
0.00263816
0.00263817
0.00267019
0.00263525
0.0026682
0.00263805
0.00263816
0.00263512
0.00263011
0.00259542
0.00262812
0.00262802
0.00259831
0.00259847
0.00263008
0.00259549
0.00262811
0.00262799
0.00259831
0.00259831
0.00262801
0.00259849
0.00259846
0.00263004
0.0025954
0.00262802
0.00259832
0.00259846
0.00259544
0.00259055
0.00255574
0.00258851
0.00258848
0.0025587
0.00255878
0.00259045
0.00255571
0.00258853
0.00258828
0.00255868
0.00255893
0.00258858
0.00255878
0.00255881
0.00259024
0.00255605
0.00258857
0.00255892
0.00255879
0.00255566
0.00255051
0.00251756
0.00254872
0.00254913
0.0025198
0.0025195
0.00255107
0.00251652
0.00254871
0.00254901
0.00251982
0.00251956
0.00254886
0.00251949
0.00251968
0.00255098
0.00251651
0.00254886
0.00251955
0.0025197
0.00251712
0.00251249
0.00247702
0.00250991
0.00250972
0.00248023
0.00248038
0.0025115
0.00247751
0.00250993
0.00250996
0.00248021
0.00248039
0.00250998
0.00248039
0.00248034
0.00251202
0.00247759
0.00250997
0.00248039
0.00248034
0.0024774
0.00247211
0.00243997
0.00247068
0.00247084
0.00244192
0.00244188
0.0024727
0.0024397
0.00247064
0.00247057
0.00244191
0.00244196
0.00247054
0.00244188
0.00244202
0.0024724
0.00243978
0.00247052
0.00244196
0.00244199
0.00244015
0.00243481
0.00240025
0.00243212
0.00243212
0.0024031
0.00240309
0.00243462
0.00240028
0.00243213
0.00243228
0.00240312
0.00240308
0.00243228
0.0024031
0.00240306
0.00243498
0.00240053
0.00243227
0.00240309
0.00240306
0.00240027
0.00239539
0.00236242
0.0023935
0.0023935
0.00236482
0.00236481
0.00239542
0.00236244
0.0023935
0.00239343
0.0023648
0.00236482
0.00239348
0.0023648
0.00236478
0.00239542
0.0023623
0.00239347
0.00236481
0.00236478
0.00236245
0.0023575
0.00232447
0.00235529
0.00235528
0.00232673
0.00232673
0.00235752
0.00232445
0.00235528
0.00235529
0.00232673
0.00232674
0.00235526
0.00232673
0.00232675
0.00235748
0.0023245
0.00235525
0.00232674
0.00232675
0.00232441
0.00231956
0.0022864
0.00231723
0.00231722
0.00228878
0.0022888
0.00231953
0.00228643
0.00231723
0.00231724
0.00228877
0.00228877
0.00231724
0.00228879
0.00228878
0.00231957
0.00228641
0.00231724
0.00228877
0.00228877
0.00228645
0.00228148
0.0022487
0.00227933
0.00227934
0.00225104
0.00225102
0.00228151
0.00224868
0.00227933
0.00227932
0.00225105
0.00225103
0.00227933
0.00225104
0.00225103
0.0022815
0.00224867
0.00227932
0.00225103
0.00225103
0.00224866
0.0022438
0.00221104
0.00224162
0.00224162
0.00221342
0.00221344
0.00224378
0.00221105
0.00224161
0.00224161
0.00221341
0.00221343
0.00224161
0.00221343
0.00221344
0.00224377
0.00221106
0.00224162
0.00221343
0.00221343
0.00221106
0.00220614
0.00217361
0.00220405
0.00220406
0.00217602
0.00217601
0.00220616
0.00217361
0.00220406
0.00220406
0.00217603
0.002176
0.00220407
0.002176
0.00217599
0.00220616
0.0021736
0.00220406
0.002176
0.002176
0.0021736
0.00216872
0.00213627
0.00216667
0.00216669
0.00213867
0.00213867
0.00216873
0.00213626
0.00216667
0.00216666
0.00213867
0.00213869
0.00216666
0.00213868
0.00213869
0.00216872
0.0021363
0.00216667
0.0021387
0.00213868
0.00213627
0.0021314
0.00209917
0.00212936
0.00212934
0.00210158
0.00210156
0.00213137
0.00209916
0.00212937
0.0021294
0.00210158
0.00210154
0.00212938
0.00210155
0.00210155
0.00213141
0.00209913
0.00212937
0.00210152
0.00210154
0.00209916
0.0020943
0.00206215
0.00209231
0.00209231
0.00206452
0.00206453
0.0020943
0.00206217
0.00209231
0.00209226
0.00206453
0.00206459
0.00209229
0.00206457
0.00206458
0.00209427
0.00206222
0.00209229
0.00206461
0.00206458
0.00206219
0.0020573
0.0020254
0.00205531
0.00205532
0.00202776
0.00202778
0.00205732
0.00202542
0.00205532
0.00205537
0.00202776
0.00202772
0.00205536
0.00202774
0.00202772
0.00205735
0.00202537
0.00205535
0.00202771
0.00202773
0.00202539
0.00202055
0.00198875
0.00201856
0.00201859
0.00199105
0.00199104
0.00202056
0.00198871
0.00201859
0.00201854
0.00199108
0.00199111
0.00201854
0.00199103
0.00199108
0.00202054
0.00198878
0.00201855
0.00199111
0.00199109
0.00198876
0.00198393
0.00195231
0.00198192
0.00198189
0.00195462
0.00195464
0.00198389
0.00195237
0.00198193
0.00198196
0.00195456
0.00195458
0.00198195
0.00195464
0.00195462
0.00198395
0.0019523
0.00198195
0.00195457
0.00195461
0.00195233
0.0019475
0.00191608
0.00194552
0.00194557
0.00191832
0.00191833
0.00194756
0.00191606
0.00194547
0.0019455
0.00191831
0.00191835
0.00194553
0.00191832
0.00191835
0.0019475
0.00191609
0.00194552
0.00191836
0.00191835
0.00191611
0.0019113
0.0018801
0.00190929
0.00190928
0.00188231
0.00188229
0.00191128
0.0018801
0.00190929
0.00190931
0.00188231
0.00188226
0.00190932
0.00188228
0.00188229
0.00191131
0.00188006
0.00190933
0.00188226
0.00188229
0.00188006
0.00187534
0.00184434
0.00187333
0.00187331
0.00184652
0.00184646
0.00187533
0.00184431
0.00187333
0.00187328
0.00184653
0.0018465
0.00187329
0.00184651
0.00184647
0.00187529
0.00184434
0.00187328
0.0018465
0.00184648
0.00184431
0.00183961
0.00180894
0.00183762
0.00183756
0.00181107
0.00181107
0.00183958
0.00180895
0.00183763
0.00183761
0.00181107
0.00181108
0.0018376
0.00181106
0.00181107
0.00183962
0.00180896
0.00183761
0.00181108
0.00181107
0.00180893
0.00180426
0.00177395
0.00180227
0.00180229
0.00177606
0.00177609
0.00180428
0.00177397
0.00180227
0.00180228
0.00177606
0.00177605
0.00180225
0.00177608
0.00177603
0.00180427
0.00177394
0.00180225
0.00177605
0.00177604
0.00177394
0.0017693
0.00173924
0.00176735
0.00176737
0.00174128
0.0017413
0.00176932
0.00173925
0.00176734
0.00176732
0.00174126
0.00174128
0.00176733
0.00174129
0.00174126
0.00176929
0.00173925
0.00176734
0.00174129
0.00174127
0.00173924
0.00173465
0.00170528
0.00173267
0.00173269
0.00170724
0.00170727
0.00173466
0.00170528
0.00173266
0.00173268
0.00170726
0.00170727
0.00173265
0.00170724
0.00170724
0.00173466
0.00170527
0.00173265
0.00170724
0.00170723
0.00170527
0.0017008
0.00167161
0.00169889
0.00169891
0.00167371
0.00167371
0.0017008
0.0016716
0.00169891
0.00169891
0.00167374
0.00167372
0.00169891
0.00167373
0.00167376
0.0017008
0.0016716
0.00169889
0.00167372
0.00167375
0.00167163
0.00166705
0.00163706
0.00166521
0.00166521
0.0016392
0.00163918
0.00166705
0.00163706
0.00166523
0.00166521
0.00163922
0.0016392
0.00166526
0.00163922
0.00163923
0.00166705
0.00163706
0.00166526
0.00163922
0.00163923
0.00163707
0.00163234
0.00160113
0.00163038
0.00163036
0.00160326
0.00160325
0.00163233
0.00160112
0.00163038
0.00163035
0.00160325
0.00160325
0.00163038
0.00160325
0.00160325
0.00163234
0.00160112
0.00163038
0.00160325
0.00160325
0.00160112
0.00159616
0.00156391
0.001594
0.001594
0.00156589
0.00156588
0.00159615
0.0015639
0.001594
0.00159399
0.00156588
0.00156588
0.00159399
0.00156588
0.00156587
0.00159615
0.00156391
0.00159399
0.00156588
0.00156587
0.0015639
0.00155893
0.00152721
0.0015566
0.0015566
0.00152913
0.00152913
0.00155893
0.00152721
0.0015566
0.0015566
0.00152913
0.00152913
0.00155659
0.00152913
0.00152913
0.00155893
0.00152721
0.00155659
0.00152913
0.00152913
0.00152722
0.00152238
0.00149181
0.00152012
0.00152012
0.00149371
0.00149371
0.00152238
0.00149181
0.00152012
0.00152012
0.00149371
0.00149371
0.00152012
0.00149371
0.00149371
0.00152238
0.00149181
0.00152013
0.00149371
0.00149371
0.00149181
0.00148722
0.00145847
0.00148517
0.00148516
0.00146036
0.00146036
0.00148722
0.00145847
0.00148516
0.00148516
0.00146036
0.00146036
0.00148517
0.00146036
0.00146036
0.00148722
0.00145847
0.00148517
0.00146036
0.00146036
0.00145847
0.00145417
0.00142693
0.00145239
0.00145239
0.00142894
0.00142894
0.00145417
0.00142693
0.00145238
0.00145239
0.00142894
0.00142894
0.00145239
0.00142894
0.00142894
0.00145418
0.00142693
0.00145239
0.00142894
0.00142894
0.00142693
0.00142276
0.0013958
0.0014212
0.0014212
0.00139791
0.00139792
0.00142276
0.0013958
0.0014212
0.0014212
0.00139791
0.00139792
0.0014212
0.00139792
0.00139791
0.00142276
0.0013958
0.0014212
0.00139791
0.00139791
0.0013958
0.00139158
0.00136415
0.00139008
0.00139008
0.00136625
0.00136625
0.00139158
0.00136415
0.00139008
0.00139008
0.00136625
0.00136625
0.00139008
0.00136625
0.00136625
0.00139158
0.00136415
0.00139008
0.00136625
0.00136625
0.00136415
0.00135979
0.00133135
0.00135816
0.00135816
0.00133341
0.00133341
0.00135979
0.00133135
0.00135816
0.00135816
0.00133341
0.00133341
0.00135816
0.00133341
0.00133341
0.00135979
0.00133135
0.00135816
0.00133341
0.00133341
0.00133135
0.0013268
0.00129726
0.00132499
0.00132499
0.00129931
0.00129931
0.0013268
0.00129726
0.00132499
0.00132499
0.00129931
0.00129931
0.00132499
0.00129931
0.00129931
0.0013268
0.00129726
0.00132499
0.00129931
0.00129931
0.00129726
0.00129256
0.00126223
0.00129062
0.00129062
0.00126428
0.00126428
0.00129256
0.00126223
0.00129062
0.00129062
0.00126428
0.00126428
0.00129062
0.00126428
0.00126428
0.00129256
0.00126223
0.00129062
0.00126428
0.00126428
0.00126223
0.00125744
0.00122666
0.00125543
0.00125543
0.00122871
0.00122871
0.00125744
0.00122666
0.00125543
0.00125543
0.00122871
0.00122871
0.00125543
0.00122871
0.00122871
0.00125744
0.00122666
0.00125543
0.00122871
0.00122871
0.00122666
0.00122182
0.00119083
0.00121977
0.00121977
0.00119288
0.00119288
0.00122182
0.00119083
0.00121977
0.00121977
0.00119288
0.00119288
0.00121977
0.00119288
0.00119288
0.00122182
0.00119083
0.00121977
0.00119288
0.00119288
0.00119083
0.00118597
0.00115491
0.00118391
0.00118391
0.00115696
0.00115696
0.00118597
0.00115491
0.00118391
0.00118391
0.00115696
0.00115696
0.00118391
0.00115696
0.00115696
0.00118597
0.00115491
0.00118391
0.00115696
0.00115696
0.00115491
0.00115005
0.00111897
0.00114798
0.00114798
0.00112102
0.00112102
0.00115004
0.00111897
0.00114798
0.00114798
0.00112102
0.00112102
0.00114798
0.00112102
0.00112102
0.00115005
0.00111897
0.00114798
0.00112102
0.00112102
0.00111897
0.0011141
0.00108301
0.00111203
0.00111203
0.00108506
0.00108506
0.0011141
0.00108301
0.00111203
0.00111203
0.00108506
0.00108506
0.00111203
0.00108506
0.00108506
0.0011141
0.00108301
0.00111203
0.00108506
0.00108506
0.00108301
0.00107814
0.00104705
0.00107607
0.00107607
0.00104911
0.00104911
0.00107814
0.00104705
0.00107607
0.00107607
0.00104911
0.00104911
0.00107607
0.00104911
0.00104911
0.00107814
0.00104705
0.00107607
0.00104911
0.00104911
0.00104705
0.00104219
0.00101109
0.00104012
0.00104012
0.00101315
0.00101315
0.00104219
0.00101109
0.00104012
0.00104012
0.00101315
0.00101315
0.00104012
0.00101315
0.00101315
0.00104219
0.00101109
0.00104012
0.00101315
0.00101315
0.00101109
0.00100622
0.000975128
0.00100416
0.00100416
0.000977185
0.000977185
0.00100622
0.000975129
0.00100416
0.00100416
0.000977184
0.000977185
0.00100416
0.000977185
0.000977185
0.00100622
0.000975128
0.00100416
0.000977185
0.000977185
0.000975128
0.000970264
0.00093917
0.000968197
0.000968197
0.000941228
0.000941227
0.000970264
0.00093917
0.000968196
0.000968196
0.000941228
0.000941227
0.000968197
0.000941227
0.000941227
0.000970265
0.00093917
0.000968197
0.000941227
0.000941227
0.00093917
0.000934304
0.000903209
0.000932235
0.000932235
0.000905266
0.000905266
0.000934303
0.00090321
0.000932235
0.000932235
0.000905266
0.000905266
0.000932235
0.000905266
0.000905266
0.000934303
0.000903209
0.000932235
0.000905266
0.000905266
0.000903209
0.000898345
0.000867248
0.000896278
0.000896278
0.000869305
0.000869304
0.000898345
0.000867248
0.000896277
0.000896278
0.000869305
0.000869305
0.000896278
0.000869304
0.000869305
0.000898345
0.000867248
0.000896277
0.000869305
0.000869305
0.000867248
0.000862382
0.000831289
0.000860315
0.000860314
0.000833345
0.000833345
0.000862382
0.000831289
0.000860315
0.000860315
0.000833345
0.000833345
0.000860315
0.000833345
0.000833345
0.000862382
0.000831289
0.000860316
0.000833345
0.000833345
0.000831289
0.000826423
0.000795326
0.000824354
0.000824354
0.000797384
0.000797384
0.000826423
0.000795326
0.000824354
0.000824354
0.000797384
0.000797384
0.000824354
0.000797384
0.000797384
0.000826424
0.000795326
0.000824354
0.000797384
0.000797384
0.000795326
0.000790461
0.000759366
0.000788394
0.000788394
0.000761423
0.000761422
0.000790461
0.000759366
0.000788394
0.000788394
0.000761423
0.000761422
0.000788394
0.000761423
0.000761423
0.000790461
0.000759365
0.000788394
0.000761422
0.000761422
0.000759366
0.0007545
0.000723408
0.000752432
0.000752432
0.000725465
0.000725465
0.0007545
0.000723409
0.000752433
0.000752433
0.000725464
0.000725464
0.000752433
0.000725464
0.000725465
0.0007545
0.000723408
0.000752432
0.000725465
0.000725465
0.000723408
0.000718543
0.000687448
0.000716474
0.000716474
0.000689505
0.000689505
0.000718543
0.000687449
0.000716474
0.000716474
0.000689505
0.000689506
0.000716474
0.000689506
0.000689506
0.000718543
0.000687449
0.000716474
0.000689506
0.000689506
0.000687449
0.000682584
0.00065149
0.000680517
0.000680517
0.000653547
0.000653546
0.000682584
0.00065149
0.000680517
0.000680517
0.000653547
0.000653546
0.000680518
0.000653546
0.000653546
0.000682585
0.000651489
0.000680517
0.000653546
0.000653546
0.000651489
0.000646625
0.000615535
0.000644558
0.000644558
0.000617591
0.000617591
0.000646625
0.000615534
0.000644558
0.000644559
0.000617591
0.00061759
0.000644558
0.000617592
0.000617592
0.000646626
0.000615534
0.000644558
0.000617592
0.000617592
0.000615534
0.00061067
0.000579579
0.000608601
0.0006086
0.000581635
0.000581636
0.000610668
0.000579579
0.000608602
0.000608601
0.000581634
0.000581635
0.0006086
0.000581636
0.000581636
0.000610668
0.000579579
0.0006086
0.000581636
0.000581636
0.000579579
0.000574714
0.000543621
0.000572646
0.000572645
0.000545678
0.000545679
0.000574713
0.000543622
0.000572645
0.000572645
0.000545677
0.000545679
0.000572648
0.000545677
0.000545676
0.000574714
0.000543622
0.000572648
0.000545677
0.000545676
0.000543621
0.000538756
0.000507663
0.000536689
0.000536689
0.000509721
0.00050972
0.000538757
0.000507664
0.000536688
0.000536689
0.000509721
0.000509721
0.000536689
0.00050972
0.000509721
0.000538757
0.000507663
0.000536689
0.00050972
0.00050972
0.000507663
0.000502798
0.000471705
0.000500732
0.000500732
0.000473762
0.000473762
0.000502799
0.000471706
0.000500732
0.000500733
0.000473763
0.000473762
0.000500731
0.000473764
0.000473764
0.000502799
0.000471705
0.000500731
0.000473764
0.000473764
0.000471706
0.00046684
0.00043575
0.000464774
0.000464774
0.000437806
0.000437805
0.00046684
0.00043575
0.000464774
0.000464774
0.000437805
0.000437805
0.000464775
0.000437805
0.000437805
0.00046684
0.000435748
0.000464774
0.000437805
0.000437805
0.00043575
0.000430885
0.000399789
0.000428816
0.000428816
0.000401846
0.000401847
0.000430884
0.000399791
0.000428816
0.000428815
0.000401846
0.000401847
0.000428817
0.000401847
0.000401846
0.000430883
0.000399789
0.000428818
0.000401845
0.000401845
0.000399789
0.000394924
0.000363833
0.000392857
0.000392857
0.00036589
0.00036589
0.000394923
0.000363834
0.000392857
0.000392856
0.00036589
0.00036589
0.000392857
0.00036589
0.00036589
0.000394923
0.000363833
0.000392857
0.00036589
0.000365889
0.000363832
0.000358967
0.000327874
0.0003569
0.0003569
0.00032993
0.00032993
0.000358967
0.000327875
0.0003569
0.0003569
0.00032993
0.00032993
0.0003569
0.00032993
0.00032993
0.000358967
0.000327874
0.000356898
0.00032993
0.000329931
0.000327875
0.000323009
0.000291915
0.000320943
0.000320943
0.000293972
0.000293971
0.000323009
0.000291915
0.000320943
0.000320943
0.000293971
0.000293971
0.000320944
0.00029397
0.00029397
0.000323009
0.000291915
0.000320944
0.000293971
0.00029397
0.000291915
0.000287048
0.000255961
0.000284984
0.000284984
0.000258014
0.000258014
0.000287048
0.000255961
0.000284984
0.000284984
0.000258014
0.000258014
0.000284984
0.000258015
0.000258014
0.000287048
0.000255961
0.000284984
0.000258015
0.000258014
0.000255958
0.000251092
0.000220004
0.000249028
0.000249028
0.000222057
0.000222057
0.000251091
0.000220005
0.000249028
0.000249028
0.000222057
0.000222056
0.000249026
0.000222059
0.00022206
0.000251093
0.000220003
0.000249026
0.000222057
0.000222059
0.000220004
0.000215134
0.000184048
0.000213072
0.000213071
0.0001861
0.0001861
0.000215134
0.000184048
0.000213071
0.000213071
0.0001861
0.0001861
0.000213072
0.0001861
0.000186101
0.000215133
0.000184047
0.000213071
0.0001861
0.000186102
0.00018405
0.000179172
0.000148093
0.000177116
0.000177115
0.000150142
0.000150142
0.000179171
0.000148093
0.000177114
0.000177114
0.000150143
0.000150143
0.000177117
0.000150141
0.000150141
0.000179171
0.000148093
0.000177116
0.000150143
0.000150143
0.000148094
0.000143206
0.000112137
0.000141159
0.000141159
0.00011418
0.00011418
0.000143206
0.000112137
0.000141159
0.000141159
0.000114181
0.000114181
0.00014116
0.00011418
0.000114179
0.000143206
0.000112137
0.000141161
0.00011418
0.000114179
0.000112136
0.000107228
7.61756e-05
0.000105197
0.000105197
7.82143e-05
7.82144e-05
0.000107227
7.61775e-05
0.000105199
0.000105199
7.82123e-05
7.82117e-05
0.000105198
7.82145e-05
7.82126e-05
0.000107229
7.61754e-05
0.000105199
7.82129e-05
7.82125e-05
7.61745e-05
7.12308e-05
4.02665e-05
6.92352e-05
6.92354e-05
4.2303e-05
4.23034e-05
7.12311e-05
4.02684e-05
6.92338e-05
6.92337e-05
4.23017e-05
4.23005e-05
6.92333e-05
4.23029e-05
4.23015e-05
7.12309e-05
4.02648e-05
6.92327e-05
4.23005e-05
4.23003e-05
4.02643e-05
3.53584e-05
8.17041e-06
3.35233e-05
3.35237e-05
1.11136e-05
1.11128e-05
3.53598e-05
8.16977e-06
3.35212e-05
3.35192e-05
1.11152e-05
1.11085e-05
3.35189e-05
1.11135e-05
1.11074e-05
3.53566e-05
8.16676e-06
3.35184e-05
1.11114e-05
1.11122e-05
8.16562e-06
5.02054e-06
6.57761e-06
6.5764e-06
5.02069e-06
6.57771e-06
6.57343e-06
5.8796e-06
5.87901e-06
5.87823e-06
6.57289e-06
5.01904e-06
6.57627e-06
0.00354517
0.00354781
0.00354663
0.00354665
0.00357311
0.00354795
0.00357707
0.00354805
0.00357321
0.00354808
0.00354812
0.00357723
0.00355882
0.00358042
0.00358037
0.0035174
0.00353123
0.00353512
0.00350974
0.00350792
0.00351312
0.00351732
0.00353122
0.0035351
0.00350974
0.00353345
0.00353345
0.00353345
0.00350676
0.00350678
0.00350673
0.00350673
0.0035171
0.00352893
0.00353401
0.00352461
0.00353618
0.00351418
0.00352485
0.00350804
0.00351316
0.00351709
0.00353401
0.00352902
0.00352459
0.00353621
0.00352483
0.00351426
0.00353491
0.00353493
0.00352188
0.00351414
0.00351411
0.00348991
0.00350419
0.00350398
0.00348803
0.0035014
0.00348716
0.00348983
0.00350422
0.00350401
0.00348801
0.00349777
0.00349772
0.00349773
0.00346999
0.00346998
0.00346993
0.00346995
0.0034878
0.0035027
0.00349636
0.00348694
0.00350118
0.00348838
0.00348699
0.00350137
0.00348711
0.00348777
0.00349631
0.00350268
0.00348706
0.00350112
0.00348701
0.00348835
0.00350438
0.00350438
0.00348554
0.00348872
0.00348872
0.0034478
0.00346254
0.0034634
0.00344658
0.00346139
0.00344572
0.00344782
0.00346254
0.00346331
0.00344658
0.00346001
0.00345997
0.00345999
0.00342739
0.00342739
0.00342735
0.00342736
0.00344658
0.00346215
0.00345812
0.00344765
0.00346113
0.00344708
0.00344768
0.0034613
0.0034457
0.00344656
0.00345811
0.00346204
0.00344774
0.0034611
0.00344772
0.00344697
0.00346276
0.00346277
0.00344504
0.00344689
0.00344691
0.0034012
0.00341793
0.00341942
0.00339988
0.00341722
0.0033994
0.0034012
0.00341792
0.00341945
0.00339986
0.0034157
0.00341568
0.00341569
0.0033795
0.00337951
0.00337949
0.0033795
0.00340044
0.00341778
0.00341405
0.00340221
0.00341716
0.00340059
0.00340216
0.00341715
0.00339941
0.00340041
0.00341403
0.00341768
0.00340223
0.00341713
0.00340219
0.00340057
0.00341794
0.00341798
0.00339895
0.00340008
0.00340008
0.00335219
0.00336934
0.00337072
0.00335106
0.00336897
0.00335073
0.00335216
0.00336934
0.0033707
0.00335104
0.00336729
0.00336728
0.00336729
0.00333084
0.00333083
0.00333082
0.00333082
0.00335176
0.00336937
0.00336579
0.00335361
0.00336904
0.00335174
0.00335362
0.00336899
0.00335074
0.00335178
0.00336581
0.00336939
0.00335355
0.00336905
0.00335363
0.00335175
0.00336943
0.00336943
0.00335036
0.00335116
0.00335117
0.00330344
0.00332065
0.00332163
0.00330259
0.00332034
0.00330235
0.0033035
0.00332066
0.00332157
0.00330259
0.00331876
0.00331875
0.00331875
0.00328277
0.00328277
0.00328274
0.00328276
0.00330335
0.00332065
0.00331738
0.00330533
0.00332046
0.00330322