/*--------------------------------*- C++ -*----------------------------------*\
| =========                 |                                                 |
| \\      /  F ield         | OpenFOAM: The Open Source CFD Toolbox           |
|  \\    /   O peration     | Version:  v1906                                 |
|   \\  /    A nd           | Web:      www.OpenFOAM.com                      |
|    \\/     M anipulation  |                                                 |
\*---------------------------------------------------------------------------*/
FoamFile
{
    version     2.0;
    format      ascii;
    class       volScalarField;
    location    "237.5";
    object      epsilon;
}
// * * * * * * * * * * * * * * * * * * * * * * * * * * * * * * * * * * * * * //

dimensions      [0 2 -3 0 0 0 0];


internalField   nonuniform List<scalar> 
171728
(
7.11265e-09
4.72708e-09
4.83823e-09
4.91821e-09
7.05092e-09
4.32074e-09
4.20682e-09
4.45395e-09
7.0881e-09
3.96331e-09
3.75647e-09
4.06424e-09
7.13031e-09
3.66128e-09
3.4731e-09
3.73759e-09
7.1856e-09
3.40169e-09
3.33368e-09
3.46035e-09
7.25137e-09
3.184e-09
3.30258e-09
3.22457e-09
7.32796e-09
3.01018e-09
3.38731e-09
3.01843e-09
7.41598e-09
2.88269e-09
3.52433e-09
2.84718e-09
7.51503e-09
2.79924e-09
3.61835e-09
2.71364e-09
7.62536e-09
2.76007e-09
3.58694e-09
2.61769e-09
7.7462e-09
2.76327e-09
3.54583e-09
2.54935e-09
7.87396e-09
2.81133e-09
3.58868e-09
2.51051e-09
8.01016e-09
2.90835e-09
3.64807e-09
2.51479e-09
8.15236e-09
3.06651e-09
3.69828e-09
2.57809e-09
8.30014e-09
3.30857e-09
3.75365e-09
2.71964e-09
8.45405e-09
3.66883e-09
3.90936e-09
2.98672e-09
8.61555e-09
4.20673e-09
4.51494e-09
3.44447e-09
8.78628e-09
4.99224e-09
5.27385e-09
4.27692e-09
8.97204e-09
6.19116e-09
6.2216e-09
5.58828e-09
9.17295e-09
8.56249e-09
7.89881e-09
8.71388e-09
9.40385e-09
1.00931e-08
1.05685e-08
1.14883e-08
9.65046e-09
1.42517e-08
1.40568e-08
1.99985e-08
9.94186e-09
1.96818e-08
1.95706e-08
3.3229e-08
1.0268e-08
2.59283e-08
2.57743e-08
4.54748e-08
1.06528e-08
3.48913e-08
3.53474e-08
8.18881e-08
1.11504e-08
4.68336e-08
4.61407e-08
1.19327e-07
1.17572e-08
6.23536e-08
6.11007e-08
1.62832e-07
1.25538e-08
7.76932e-08
8.08571e-08
2.39014e-07
1.34514e-08
9.70454e-08
9.6613e-08
2.954e-07
1.47569e-08
1.26322e-07
1.25313e-07
3.91745e-07
1.61543e-08
1.48375e-07
1.501e-07
4.66096e-07
1.80644e-08
1.78315e-07
1.77583e-07
5.27266e-07
2.06188e-08
2.13729e-07
2.14406e-07
6.06289e-07
2.35949e-08
2.50066e-07
2.50454e-07
6.71071e-07
2.74498e-08
2.90554e-07
2.90732e-07
7.27951e-07
3.18731e-08
3.32405e-07
3.33118e-07
7.80162e-07
3.77698e-08
3.76813e-07
3.77141e-07
8.2567e-07
4.41941e-08
4.2474e-07
4.2449e-07
8.66907e-07
5.24555e-08
4.723e-07
4.68912e-07
9.04599e-07
6.16084e-08
5.21313e-07
5.21392e-07
9.40924e-07
7.28107e-08
5.7081e-07
5.6792e-07
9.73446e-07
8.56361e-08
6.17292e-07
6.18552e-07
1.00563e-06
1.0039e-07
6.67069e-07
6.63675e-07
1.03519e-06
1.16447e-07
7.13617e-07
7.11563e-07
1.06401e-06
1.34531e-07
7.55528e-07
7.5443e-07
1.09168e-06
1.54873e-07
7.9688e-07
7.94591e-07
1.11281e-06
1.76273e-07
8.2965e-07
8.31369e-07
1.13555e-06
2.00307e-07
8.64738e-07
8.66373e-07
1.15435e-06
2.2339e-07
8.87792e-07
8.88174e-07
1.16807e-06
2.4515e-07
9.0942e-07
9.09444e-07
1.17892e-06
2.82956e-07
9.51458e-07
9.51231e-07
1.21667e-06
3.22131e-07
9.79821e-07
9.79509e-07
1.24559e-06
3.38711e-07
9.83757e-07
9.83585e-07
1.24559e-06
3.36986e-07
9.64178e-07
9.64144e-07
1.21341e-06
3.24621e-07
9.41769e-07
9.41851e-07
1.17494e-06
3.26921e-07
9.33898e-07
9.34005e-07
1.15534e-06
3.54895e-07
9.46662e-07
9.46755e-07
1.16344e-06
4.12214e-07
9.88821e-07
9.88916e-07
1.2125e-06
4.70869e-07
1.03247e-06
1.03257e-06
1.26845e-06
5.09695e-07
1.06215e-06
1.06224e-06
1.30917e-06
5.29266e-07
1.07788e-06
1.07797e-06
1.33236e-06
5.37462e-07
1.08496e-06
1.08505e-06
1.34359e-06
5.40614e-07
1.08797e-06
1.08806e-06
1.34859e-06
5.41692e-07
1.08905e-06
1.08914e-06
1.35061e-06
5.41847e-07
1.08921e-06
1.0893e-06
1.35102e-06
5.41841e-07
1.08919e-06
1.08928e-06
1.35083e-06
5.4192e-07
1.08933e-06
1.08942e-06
1.35122e-06
5.41885e-07
1.08925e-06
1.08934e-06
1.35107e-06
5.41883e-07
1.08926e-06
1.08935e-06
1.35101e-06
5.4189e-07
1.08928e-06
1.08937e-06
1.35119e-06
5.41876e-07
1.08925e-06
1.08934e-06
1.35095e-06
5.41883e-07
1.08928e-06
1.08937e-06
1.35117e-06
5.41875e-07
1.08925e-06
1.08934e-06
1.35095e-06
5.41875e-07
1.08927e-06
1.08936e-06
1.35115e-06
5.41871e-07
1.08926e-06
1.08935e-06
1.351e-06
5.41869e-07
1.08926e-06
1.08935e-06
1.35109e-06
5.41868e-07
1.08926e-06
1.08935e-06
1.35109e-06
5.41867e-07
1.08926e-06
1.08935e-06
1.35101e-06
5.41866e-07
1.08926e-06
1.08935e-06
1.35109e-06
5.41865e-07
1.08926e-06
1.08935e-06
1.35111e-06
5.41864e-07
1.08926e-06
1.08935e-06
1.35106e-06
5.41864e-07
1.08925e-06
1.08934e-06
1.35098e-06
5.41866e-07
1.08926e-06
1.08935e-06
1.35107e-06
5.41867e-07
1.08926e-06
1.08935e-06
1.3511e-06
5.41866e-07
1.08926e-06
1.08935e-06
1.3511e-06
5.41867e-07
1.08926e-06
1.08935e-06
1.35098e-06
5.41865e-07
1.08927e-06
1.08936e-06
1.35109e-06
5.41866e-07
1.08927e-06
1.08936e-06
1.35112e-06
5.41866e-07
1.08928e-06
1.08936e-06
1.351e-06
5.41869e-07
1.08929e-06
1.08938e-06
1.35102e-06
5.41873e-07
1.08931e-06
1.08939e-06
1.3511e-06
5.4188e-07
1.08933e-06
1.08942e-06
1.35102e-06
5.41877e-07
1.08938e-06
1.08947e-06
1.35096e-06
5.41547e-07
1.08907e-06
1.08914e-06
1.35069e-06
5.21732e-07
1.03008e-06
1.03007e-06
1.30709e-06
4.80396e-09
4.31375e-09
4.26106e-09
4.81491e-09
4.21359e-09
4.19929e-09
7.21783e-09
7.25507e-09
7.25065e-09
7.23266e-09
4.18925e-09
4.10787e-09
4.86567e-09
3.8049e-09
4.24167e-09
4.94809e-09
4.77374e-09
4.37791e-09
4.87326e-09
4.84237e-09
4.56264e-09
4.52928e-09
4.78586e-09
4.3964e-09
4.79894e-09
4.70922e-09
4.49001e-09
4.41841e-09
4.97155e-09
4.42084e-09
4.71595e-09
4.83419e-09
4.40783e-09
4.72397e-09
4.3534e-09
4.43466e-09
4.50886e-09
4.33058e-09
3.99483e-09
4.46053e-09
4.4254e-09
4.17671e-09
4.13768e-09
4.36373e-09
4.01817e-09
4.38928e-09
4.32348e-09
4.10316e-09
4.05947e-09
4.62762e-09
4.0473e-09
4.37828e-09
4.37357e-09
3.99573e-09
4.33865e-09
3.85148e-09
4.06593e-09
4.11492e-09
3.95211e-09
3.65944e-09
4.08745e-09
4.04636e-09
3.83879e-09
3.79619e-09
3.99006e-09
3.69608e-09
4.01287e-09
3.97704e-09
3.76144e-09
3.74775e-09
4.30017e-09
3.73215e-09
4.07726e-09
3.96236e-09
3.63917e-09
3.98334e-09
3.53058e-09
3.75037e-09
3.77785e-09
3.62489e-09
3.36976e-09
3.76133e-09
3.72022e-09
3.54565e-09
3.51155e-09
3.67154e-09
3.41753e-09
3.68387e-09
3.67672e-09
3.46873e-09
3.47862e-09
4.00698e-09
3.46305e-09
3.81093e-09
3.59925e-09
3.34591e-09
3.67638e-09
3.35705e-09
3.47411e-09
3.48693e-09
3.34568e-09
3.12854e-09
3.4802e-09
3.44873e-09
3.30098e-09
3.28303e-09
3.3971e-09
3.18047e-09
3.40231e-09
3.41836e-09
3.21693e-09
3.25477e-09
3.75011e-09
3.23411e-09
3.58302e-09
3.31089e-09
3.11694e-09
3.41457e-09
3.30264e-09
3.24898e-09
3.24237e-09
3.11118e-09
2.92521e-09
3.24739e-09
3.2347e-09
3.10614e-09
3.10023e-09
3.16366e-09
2.97806e-09
3.1598e-09
3.20602e-09
3.0014e-09
3.07735e-09
3.5332e-09
3.0503e-09
3.39444e-09
3.10224e-09
2.95393e-09
3.19818e-09
3.35424e-09
3.06687e-09
3.03252e-09
2.91214e-09
2.7577e-09
3.06687e-09
3.05861e-09
2.9662e-09
2.949e-09
2.96498e-09
2.80801e-09
2.95276e-09
3.04024e-09
2.8242e-09
2.94618e-09
3.3533e-09
2.9095e-09
3.242e-09
2.94452e-09
2.84892e-09
3.02891e-09
3.49078e-09
2.93281e-09
2.85737e-09
2.74845e-09
2.61704e-09
2.93706e-09
2.91909e-09
2.86502e-09
2.84794e-09
2.79886e-09
2.67296e-09
2.78691e-09
2.92011e-09
2.68917e-09
2.8573e-09
3.21e-09
2.81628e-09
3.13015e-09
2.84301e-09
2.76286e-09
2.90629e-09
3.60415e-09
2.84255e-09
2.71917e-09
2.61113e-09
2.50089e-09
2.84542e-09
2.82901e-09
2.80193e-09
2.7919e-09
2.6679e-09
2.57203e-09
2.66171e-09
2.84032e-09
2.6026e-09
2.80572e-09
3.11e-09
2.76667e-09
3.06352e-09
2.7571e-09
2.64194e-09
2.82597e-09
3.61257e-09
2.79162e-09
2.61882e-09
2.49899e-09
2.41974e-09
2.79438e-09
2.78563e-09
2.78545e-09
2.77989e-09
2.57178e-09
2.50915e-09
2.59153e-09
2.79967e-09
2.57564e-09
2.79753e-09
3.05217e-09
2.75927e-09
3.02367e-09
2.63825e-09
2.58677e-09
2.78613e-09
3.5449e-09
2.78142e-09
2.54699e-09
2.42246e-09
2.38431e-09
2.78763e-09
2.7826e-09
2.81232e-09
2.81036e-09
2.51275e-09
2.48228e-09
2.57692e-09
2.80141e-09
2.6015e-09
2.83076e-09
3.01621e-09
2.79763e-09
3.00685e-09
2.5913e-09
2.57168e-09
2.78416e-09
3.5728e-09
2.81036e-09
2.50139e-09
2.3953e-09
2.39263e-09
2.82512e-09
2.8248e-09
2.88857e-09
2.88872e-09
2.49381e-09
2.48943e-09
2.61681e-09
2.84654e-09
2.68213e-09
2.91097e-09
3.00859e-09
2.8814e-09
3.03502e-09
2.58268e-09
2.57565e-09
2.82471e-09
3.6328e-09
2.88608e-09
2.4954e-09
2.4137e-09
2.44965e-09
2.91488e-09
2.91642e-09
3.023e-09
3.02517e-09
2.51034e-09
2.54942e-09
2.70973e-09
2.94004e-09
2.81849e-09
3.04592e-09
3.05281e-09
3.02389e-09
3.14301e-09
2.59355e-09
2.60461e-09
2.91396e-09
3.68282e-09
3.02257e-09
2.54415e-09
2.4839e-09
2.57005e-09
3.06614e-09
3.06963e-09
3.23462e-09
3.23932e-09
2.58383e-09
2.67476e-09
2.86339e-09
3.09202e-09
3.02893e-09
3.26019e-09
3.18592e-09
3.24239e-09
3.35208e-09
2.63448e-09
2.69037e-09
3.06861e-09
3.7246e-09
3.23606e-09
2.66067e-09
2.62598e-09
2.80836e-09
3.29886e-09
3.30496e-09
3.55816e-09
3.56631e-09
2.73605e-09
2.91641e-09
3.09028e-09
3.32372e-09
3.34691e-09
3.5762e-09
3.42195e-09
3.56667e-09
3.68185e-09
2.74552e-09
2.90438e-09
3.30605e-09
3.87977e-09
3.56299e-09
2.8889e-09
2.90203e-09
3.21195e-09
3.65889e-09
3.66878e-09
4.03633e-09
4.06051e-09
3.02058e-09
3.33893e-09
3.45538e-09
3.67713e-09
3.82481e-09
4.05486e-09
3.78496e-09
4.03679e-09
4.16601e-09
2.98208e-09
3.29259e-09
3.66673e-09
4.31367e-09
4.04778e-09
3.2901e-09
3.40453e-09
3.92416e-09
4.20324e-09
4.21622e-09
4.77842e-09
4.78817e-09
3.50703e-09
4.10137e-09
3.98826e-09
4.21779e-09
4.56244e-09
4.80915e-09
4.30589e-09
4.77441e-09
4.88659e-09
3.48852e-09
4.12698e-09
4.20138e-09
5.10609e-09
4.78051e-09
4.00697e-09
4.16297e-09
5.08234e-09
4.993e-09
5.03473e-09
5.83406e-09
5.89055e-09
4.38504e-09
5.41348e-09
4.78073e-09
5.03097e-09
5.56831e-09
5.87571e-09
5.10102e-09
5.89053e-09
5.89043e-09
4.36593e-09
5.22026e-09
5.01071e-09
5.93011e-09
5.83798e-09
5.21892e-09
5.5186e-09
7.66712e-09
6.18108e-09
6.1661e-09
7.60059e-09
7.9599e-09
5.75991e-09
9.0783e-09
5.90573e-09
6.20466e-09
7.33952e-09
7.49088e-09
6.19267e-09
7.85812e-09
7.55822e-09
5.65375e-09
7.49907e-09
6.1329e-09
7.43228e-09
7.55421e-09
7.62738e-09
8.22149e-09
1.08665e-08
7.98154e-09
8.72375e-09
9.80225e-09
9.67995e-09
1.08741e-08
1.08524e-08
7.73408e-09
7.97772e-09
9.48803e-09
9.9663e-09
8.08109e-09
9.56948e-09
9.48553e-09
8.21313e-09
1.17737e-08
8.1457e-09
9.87802e-09
9.70066e-09
1.07049e-08
1.26337e-08
1.8143e-08
1.06766e-08
1.01389e-08
1.33884e-08
1.32997e-08
1.11121e-08
1.90339e-08
1.03429e-08
1.06601e-08
1.30633e-08
1.31965e-08
1.01124e-08
1.33265e-08
1.29471e-08
1.30078e-08
1.76785e-08
1.03168e-08
1.30751e-08
1.31066e-08
1.73415e-08
1.95914e-08
2.6975e-08
1.42164e-08
1.42777e-08
1.78937e-08
1.80703e-08
2.12568e-08
2.82712e-08
1.38605e-08
1.41829e-08
1.7364e-08
1.8406e-08
1.4097e-08
1.7928e-08
1.83763e-08
1.98118e-08
3.07704e-08
1.42685e-08
1.82855e-08
1.82747e-08
3.07039e-08
3.18944e-08
4.59592e-08
1.98862e-08
1.99016e-08
2.40363e-08
2.40831e-08
3.28653e-08
4.53324e-08
1.9317e-08
1.96452e-08
2.38732e-08
2.36664e-08
1.9536e-08
2.39551e-08
2.30787e-08
3.40895e-08
4.16917e-08
1.94099e-08
2.34443e-08
2.33583e-08
3.99921e-08
4.87538e-08
7.32316e-08
2.56829e-08
2.59624e-08
3.30097e-08
3.26685e-08
4.84958e-08
7.29957e-08
2.55675e-08
2.60779e-08
3.22252e-08
3.33696e-08
2.55673e-08
3.25713e-08
3.34888e-08
4.6891e-08
7.66374e-08
2.60601e-08
3.32306e-08
3.35396e-08
7.93321e-08
7.8428e-08
1.05526e-07
3.50173e-08
3.51636e-08
4.40959e-08
4.4695e-08
7.81079e-08
1.1346e-07
3.41526e-08
3.56012e-08
4.36452e-08
4.29935e-08
3.49779e-08
4.42635e-08
4.31933e-08
8.0772e-08
1.04371e-07
3.50092e-08
4.26156e-08
4.38897e-08
1.0451e-07
1.19463e-07
1.5083e-07
4.80263e-08
4.71608e-08
5.60097e-08
5.7275e-08
1.2288e-07
1.52122e-07
4.78501e-08
4.63489e-08
5.59414e-08
5.82891e-08
4.75681e-08
5.73415e-08
5.69717e-08
1.12011e-07
1.61729e-07
4.82485e-08
5.82071e-08
5.68552e-08
1.5807e-07
1.569e-07
2.32973e-07
5.94179e-08
6.24993e-08
7.75379e-08
7.55183e-08
1.66777e-07
2.2708e-07
5.90543e-08
6.1252e-08
7.6608e-08
7.46533e-08
5.94804e-08
7.46919e-08
7.48314e-08
1.73039e-07
2.11654e-07
5.93965e-08
7.43199e-08
7.52353e-08
2.12734e-07
2.54147e-07
2.79083e-07
8.2349e-08
7.83347e-08
9.15232e-08
8.9969e-08
2.33625e-07
2.63686e-07
8.16911e-08
8.11646e-08
9.14958e-08
9.37164e-08
8.14923e-08
9.00565e-08
9.2666e-08
2.30551e-07
2.93051e-07
8.1734e-08
9.3321e-08
9.29267e-08
2.89031e-07
2.85374e-07
3.80678e-07
9.63641e-08
9.69375e-08
1.19191e-07
1.20449e-07
2.8012e-07
3.85972e-07
9.63032e-08
9.71048e-08
1.18036e-07
1.16577e-07
9.61844e-08
1.20175e-07
1.16743e-07
2.99922e-07
3.55432e-07
9.65967e-08
1.16156e-07
1.17283e-07
3.61972e-07
4.0492e-07
4.46294e-07
1.26155e-07
1.26461e-07
1.42639e-07
1.42583e-07
4.05065e-07
4.44065e-07
1.24918e-07
1.25551e-07
1.42753e-07
1.45471e-07
1.25135e-07
1.42582e-07
1.43906e-07
3.82564e-07
4.60864e-07
1.25611e-07
1.4512e-07
1.44082e-07
4.5644e-07
4.57236e-07
5.12016e-07
1.48489e-07
1.48394e-07
1.69771e-07
1.69706e-07
4.55488e-07
5.11609e-07
1.48716e-07
1.50638e-07
1.691e-07
1.70156e-07
1.49612e-07
1.69701e-07
1.69175e-07
4.70766e-07
5.10002e-07
1.49707e-07
1.69434e-07
1.69639e-07
5.10192e-07
5.29254e-07
5.91188e-07
1.77991e-07
1.78286e-07
2.05093e-07
2.04814e-07
5.29345e-07
5.9161e-07
1.77401e-07
1.78386e-07
2.05105e-07
2.05783e-07
1.77136e-07
2.05095e-07
2.04036e-07
5.25997e-07
5.92694e-07
1.77588e-07
2.04941e-07
2.04508e-07
5.90375e-07
6.0736e-07
6.55994e-07
2.14158e-07
2.13588e-07
2.40364e-07
2.41633e-07
6.07451e-07
6.5676e-07
2.13872e-07
2.14974e-07
2.39416e-07
2.41889e-07
2.13064e-07
2.40686e-07
2.40483e-07
6.09167e-07
6.57659e-07
2.13724e-07
2.41462e-07
2.40754e-07
6.56978e-07
6.70044e-07
7.16421e-07
2.49666e-07
2.5091e-07
2.80493e-07
2.79146e-07
6.70789e-07
7.14877e-07
2.49301e-07
2.51192e-07
2.81146e-07
2.8127e-07
2.49941e-07
2.79757e-07
2.7907e-07
6.71409e-07
7.15347e-07
2.49984e-07
2.80239e-07
2.79645e-07
7.14445e-07
7.29994e-07
7.6661e-07
2.90975e-07
2.89957e-07
3.21156e-07
3.22378e-07
7.28645e-07
7.67752e-07
2.9095e-07
2.91476e-07
3.2001e-07
3.22134e-07
2.89377e-07
3.22489e-07
3.21646e-07
7.28762e-07
7.67668e-07
2.90097e-07
3.22141e-07
3.21627e-07
7.67922e-07
7.78809e-07
8.15456e-07
3.31495e-07
3.32243e-07
3.66795e-07
3.65808e-07
7.79602e-07
8.1355e-07
3.31033e-07
3.33214e-07
3.6703e-07
3.67664e-07
3.32396e-07
3.64693e-07
3.65756e-07
7.79948e-07
8.13867e-07
3.32199e-07
3.66371e-07
3.65916e-07
8.14142e-07
8.27217e-07
8.56767e-07
3.78947e-07
3.78287e-07
4.1174e-07
4.12323e-07
8.25575e-07
8.57322e-07
3.78792e-07
3.78467e-07
4.11967e-07
4.12227e-07
3.77335e-07
4.13173e-07
4.12222e-07
8.25109e-07
8.5601e-07
3.77621e-07
4.1217e-07
4.12136e-07
8.56607e-07
8.67006e-07
8.96108e-07
4.22809e-07
4.23173e-07
4.60536e-07
4.5987e-07
8.67382e-07
8.94949e-07
4.23226e-07
4.24611e-07
4.6002e-07
4.60017e-07
4.23896e-07
4.59943e-07
4.58874e-07
8.66706e-07
8.93826e-07
4.23538e-07
4.57851e-07
4.58166e-07
8.94533e-07
9.06344e-07
9.30636e-07
4.73052e-07
4.72718e-07
5.07208e-07
5.0832e-07
9.05066e-07
9.29603e-07
4.72826e-07
4.71215e-07
5.0918e-07
5.08384e-07
4.7086e-07
5.09356e-07
5.08858e-07
9.03365e-07
9.30985e-07
4.70206e-07
5.07961e-07
5.07986e-07
9.31473e-07
9.39489e-07
9.63855e-07
5.1892e-07
5.19752e-07
5.57069e-07
5.57999e-07
9.38595e-07
9.64916e-07
5.20729e-07
5.21491e-07
5.56986e-07
5.5775e-07
5.21302e-07
5.58131e-07
5.56556e-07
9.4102e-07
9.64648e-07
5.20384e-07
5.56512e-07
5.56337e-07
9.64761e-07
9.72716e-07
9.94746e-07
5.69564e-07
5.71678e-07
6.04645e-07
6.07635e-07
9.74486e-07
9.96199e-07
5.69828e-07
5.69537e-07
6.07341e-07
6.07223e-07
5.68604e-07
6.06189e-07
6.05832e-07
9.72987e-07
9.97061e-07
5.68642e-07
6.05931e-07
6.05796e-07
9.97043e-07
1.00307e-06
1.02656e-06
6.16641e-07
6.17982e-07
6.5456e-07
6.52293e-07
1.00348e-06
1.02446e-06
6.19277e-07
6.19593e-07
6.54163e-07
6.53608e-07
6.18074e-07
6.53875e-07
6.54777e-07
1.00587e-06
1.0262e-06
6.1786e-07
6.52497e-07
6.53924e-07
1.02735e-06
1.03479e-06
1.05465e-06
6.66749e-07
6.65178e-07
6.99902e-07
7.00973e-07
1.03316e-06
1.0549e-06
6.65611e-07
6.64903e-07
6.99362e-07
7.00567e-07
6.66851e-07
7.031e-07
7.01223e-07
1.03359e-06
1.05502e-06
6.65802e-07
6.99595e-07
7.00245e-07
1.05621e-06
1.06185e-06
1.0821e-06
7.10571e-07
7.11597e-07
7.42938e-07
7.43753e-07
1.06178e-06
1.0806e-06
7.1082e-07
7.12348e-07
7.45183e-07
7.44872e-07
7.12824e-07
7.44723e-07
7.47184e-07
1.06309e-06
1.0827e-06
7.12033e-07
7.44272e-07
7.46603e-07
1.08488e-06
1.08961e-06
1.10917e-06
7.53734e-07
7.54793e-07
7.85749e-07
7.85561e-07
1.08832e-06
1.10846e-06
7.56375e-07
7.55122e-07
7.88317e-07
7.85356e-07
7.57432e-07
7.8708e-07
7.86135e-07
1.08934e-06
1.10665e-06
7.56782e-07
7.84453e-07
7.85491e-07
1.10651e-06
1.11583e-06
1.13117e-06
7.9631e-07
7.95008e-07
8.24778e-07
8.21447e-07
1.11477e-06
1.12874e-06
7.98424e-07
7.9539e-07
8.24719e-07
8.23091e-07
7.96286e-07
8.22064e-07
8.24416e-07
1.11334e-06
1.13024e-06
7.9579e-07
8.22815e-07
8.2437e-07
1.12996e-06
1.13674e-06
1.15139e-06
8.33323e-07
8.30145e-07
8.60004e-07
8.58605e-07
1.13445e-06
1.15083e-06
8.32588e-07
8.31679e-07
8.58593e-07
8.58714e-07
8.32305e-07
8.55858e-07
8.57741e-07
1.13624e-06
1.15152e-06
8.323e-07
8.57966e-07
8.57615e-07
1.14845e-06
1.15716e-06
1.16482e-06
8.68312e-07
8.67441e-07
8.85522e-07
8.85303e-07
1.15705e-06
1.16597e-06
8.6697e-07
8.67057e-07
8.83935e-07
8.84247e-07
8.66388e-07
8.83774e-07
8.84568e-07
1.15727e-06
1.16507e-06
8.66312e-07
8.84301e-07
8.85003e-07
1.16508e-06
1.16743e-06
1.17283e-06
8.89169e-07
8.89028e-07
9.02658e-07
9.02934e-07
1.16871e-06
1.17416e-06
8.87363e-07
8.87948e-07
9.00833e-07
9.02213e-07
8.88096e-07
9.01878e-07
9.0081e-07
1.16776e-06
1.17331e-06
8.88675e-07
9.01992e-07
9.01163e-07
1.17333e-06
1.17873e-06
1.20832e-06
9.1002e-07
9.10425e-07
9.4045e-07
9.41093e-07
1.17998e-06
1.20882e-06
9.08365e-07
9.09946e-07
9.3971e-07
9.41388e-07
9.07954e-07
9.40613e-07
9.38985e-07
1.17919e-06
1.20869e-06
9.08145e-07
9.40444e-07
9.38746e-07
1.20728e-06
1.21764e-06
1.24053e-06
9.51013e-07
9.51689e-07
9.74539e-07
9.75118e-07
1.21807e-06
1.24084e-06
9.50553e-07
9.52116e-07
9.74469e-07
9.75497e-07
9.50075e-07
9.75408e-07
9.74995e-07
1.21804e-06
1.241e-06
9.49757e-07
9.75082e-07
9.74623e-07
1.24058e-06
1.24532e-06
1.24379e-06
9.78988e-07
9.79479e-07
9.83755e-07
9.84015e-07
1.24561e-06
1.24394e-06
9.78913e-07
9.79768e-07
9.83542e-07
9.84067e-07
9.79671e-07
9.84296e-07
9.84534e-07
1.24576e-06
1.24401e-06
9.7933e-07
9.84087e-07
9.84316e-07
1.24459e-06
1.24478e-06
1.21431e-06
9.83322e-07
9.83521e-07
9.71023e-07
9.70965e-07
1.24493e-06
1.21418e-06
9.8307e-07
9.83505e-07
9.70639e-07
9.70758e-07
9.84054e-07
9.71015e-07
9.71465e-07
1.24499e-06
1.21417e-06
9.83873e-07
9.70953e-07
9.71419e-07
1.21504e-06
1.21272e-06
1.17501e-06
9.6429e-07
9.64168e-07
9.46111e-07
9.45897e-07
1.21257e-06
1.1747e-06
9.63888e-07
9.63939e-07
9.45688e-07
9.45774e-07
9.64636e-07
9.45786e-07
9.46106e-07
1.21256e-06
1.17481e-06
9.64616e-07
9.45846e-07
9.46084e-07
1.17519e-06
1.17477e-06
1.15456e-06
9.42114e-07
9.419e-07
9.34893e-07
9.34736e-07
1.17448e-06
1.15432e-06
9.41703e-07
9.41817e-07
9.34554e-07
9.34759e-07
9.42052e-07
9.34572e-07
9.34786e-07
1.17458e-06
1.15451e-06
9.42018e-07
9.3468e-07
9.34703e-07
1.15454e-06
1.15536e-06
1.15733e-06
9.34192e-07
9.3406e-07
9.40544e-07
9.40505e-07
1.15513e-06
1.15722e-06
9.33882e-07
9.34108e-07
9.40335e-07
9.40616e-07
9.34097e-07
9.40357e-07
9.40526e-07
1.15532e-06
1.15741e-06
9.34001e-07
9.40451e-07
9.40402e-07
1.15733e-06
1.16343e-06
1.20072e-06
9.46837e-07
9.46811e-07
9.77147e-07
9.77154e-07
1.16333e-06
1.20063e-06
9.46646e-07
9.46919e-07
9.76997e-07
9.77238e-07
9.46844e-07
9.77014e-07
9.77213e-07
1.16352e-06
1.2008e-06
9.46723e-07
9.77107e-07
9.77095e-07
1.20079e-06
1.21243e-06
1.25755e-06
9.88959e-07
9.88969e-07
1.02275e-06
1.02277e-06
1.21235e-06
1.25748e-06
9.88821e-07
9.89042e-07
1.02263e-06
1.02282e-06
9.89032e-07
1.02262e-06
1.02282e-06
1.2125e-06
1.2576e-06
9.88918e-07
1.02271e-06
1.02271e-06
1.25763e-06
1.26838e-06
1.3013e-06
1.0326e-06
1.03263e-06
1.05631e-06
1.05634e-06
1.26831e-06
1.30122e-06
1.03249e-06
1.03267e-06
1.05621e-06
1.05638e-06
1.03268e-06
1.05619e-06
1.05639e-06
1.26842e-06
1.30133e-06
1.03257e-06
1.05628e-06
1.05628e-06
1.30137e-06
1.3091e-06
1.32726e-06
1.06227e-06
1.0623e-06
1.0751e-06
1.07513e-06
1.30903e-06
1.32718e-06
1.06217e-06
1.06234e-06
1.07499e-06
1.07516e-06
1.06235e-06
1.07498e-06
1.07518e-06
1.30913e-06
1.32729e-06
1.06225e-06
1.07508e-06
1.07508e-06
1.32734e-06
1.33228e-06
1.34021e-06
1.078e-06
1.07802e-06
1.08381e-06
1.08384e-06
1.33222e-06
1.34014e-06
1.07789e-06
1.07806e-06
1.0837e-06
1.08388e-06
1.07808e-06
1.0837e-06
1.0839e-06
1.33232e-06
1.34025e-06
1.07798e-06
1.08379e-06
1.0838e-06
1.34029e-06
1.34351e-06
1.34603e-06
1.08506e-06
1.08509e-06
1.08755e-06
1.08758e-06
1.34345e-06
1.34597e-06
1.08496e-06
1.08513e-06
1.08744e-06
1.08762e-06
1.08515e-06
1.08744e-06
1.08764e-06
1.34355e-06
1.34607e-06
1.08505e-06
1.08753e-06
1.08754e-06
1.34611e-06
1.3485e-06
1.34844e-06
1.08807e-06
1.0881e-06
1.089e-06
1.08903e-06
1.34844e-06
1.34838e-06
1.08797e-06
1.08814e-06
1.0889e-06
1.08907e-06
1.08816e-06
1.0889e-06
1.08909e-06
1.34854e-06
1.34848e-06
1.08806e-06
1.08899e-06
1.089e-06
1.34853e-06
1.35052e-06
1.34898e-06
1.08915e-06
1.08918e-06
1.08931e-06
1.08934e-06
1.35047e-06
1.34892e-06
1.08905e-06
1.08922e-06
1.08921e-06
1.08938e-06
1.08925e-06
1.08921e-06
1.0894e-06
1.35056e-06
1.34902e-06
1.08915e-06
1.0893e-06
1.08931e-06
1.34907e-06
1.35093e-06
1.34882e-06
1.08931e-06
1.08934e-06
1.08928e-06
1.08931e-06
1.35087e-06
1.34875e-06
1.08921e-06
1.08938e-06
1.08918e-06
1.08935e-06
1.0894e-06
1.08918e-06
1.08937e-06
1.35097e-06
1.34886e-06
1.0893e-06
1.08927e-06
1.08927e-06
1.34891e-06
1.35074e-06
1.34918e-06
1.08929e-06
1.08932e-06
1.08942e-06
1.08945e-06
1.35068e-06
1.34912e-06
1.08918e-06
1.08935e-06
1.08931e-06
1.08948e-06
1.08938e-06
1.08932e-06
1.08951e-06
1.35078e-06
1.34922e-06
1.08928e-06
1.0894e-06
1.08941e-06
1.34926e-06
1.35114e-06
1.34912e-06
1.08943e-06
1.08946e-06
1.08938e-06
1.08941e-06
1.35108e-06
1.34905e-06
1.08933e-06
1.0895e-06
1.08928e-06
1.08945e-06
1.08952e-06
1.08928e-06
1.08947e-06
1.35118e-06
1.34915e-06
1.08943e-06
1.08937e-06
1.08937e-06
1.3492e-06
1.35099e-06
1.34898e-06
1.08935e-06
1.08938e-06
1.08934e-06
1.08937e-06
1.35092e-06
1.34893e-06
1.08925e-06
1.08942e-06
1.08924e-06
1.08941e-06
1.08944e-06
1.08924e-06
1.08943e-06
1.35102e-06
1.34903e-06
1.08935e-06
1.08933e-06
1.08934e-06
1.34907e-06
1.35092e-06
1.34922e-06
1.08936e-06
1.08939e-06
1.08939e-06
1.08942e-06
1.35086e-06
1.34915e-06
1.08926e-06
1.08943e-06
1.08929e-06
1.08946e-06
1.08945e-06
1.08929e-06
1.08948e-06
1.35096e-06
1.34925e-06
1.08936e-06
1.08938e-06
1.08938e-06
1.3493e-06
1.35111e-06
1.34895e-06
1.08938e-06
1.08941e-06
1.08935e-06
1.08938e-06
1.35105e-06
1.34889e-06
1.08928e-06
1.08945e-06
1.08925e-06
1.08942e-06
1.08947e-06
1.08925e-06
1.08944e-06
1.35114e-06
1.34899e-06
1.08937e-06
1.08934e-06
1.08934e-06
1.34904e-06
1.35086e-06
1.34914e-06
1.08935e-06
1.08938e-06
1.08938e-06
1.08941e-06
1.3508e-06
1.34909e-06
1.08925e-06
1.08942e-06
1.08928e-06
1.08945e-06
1.08944e-06
1.08928e-06
1.08947e-06
1.3509e-06
1.34919e-06
1.08934e-06
1.08937e-06
1.08937e-06
1.34924e-06
1.35108e-06
1.34894e-06
1.08938e-06
1.08941e-06
1.08935e-06
1.08938e-06
1.35102e-06
1.34888e-06
1.08928e-06
1.08945e-06
1.08925e-06
1.08942e-06
1.08947e-06
1.08925e-06
1.08944e-06
1.35112e-06
1.34898e-06
1.08938e-06
1.08934e-06
1.08934e-06
1.34903e-06
1.35086e-06
1.34914e-06
1.08935e-06
1.08938e-06
1.08937e-06
1.0894e-06
1.35081e-06
1.34907e-06
1.08925e-06
1.08942e-06
1.08927e-06
1.08944e-06
1.08944e-06
1.08927e-06
1.08946e-06
1.3509e-06
1.34918e-06
1.08934e-06
1.08935e-06
1.08936e-06
1.34922e-06
1.35107e-06
1.34896e-06
1.08937e-06
1.0894e-06
1.08936e-06
1.08939e-06
1.351e-06
1.34891e-06
1.08927e-06
1.08944e-06
1.08925e-06
1.08942e-06
1.08946e-06
1.08925e-06
1.08945e-06
1.3511e-06
1.34901e-06
1.08936e-06
1.08934e-06
1.08935e-06
1.34906e-06
1.3509e-06
1.3491e-06
1.08936e-06
1.08939e-06
1.08936e-06
1.08939e-06
1.35086e-06
1.34903e-06
1.08925e-06
1.08943e-06
1.08925e-06
1.08943e-06
1.08945e-06
1.08925e-06
1.08945e-06
1.35095e-06
1.34913e-06
1.08936e-06
1.08934e-06
1.08935e-06
1.34919e-06
1.351e-06
1.34902e-06
1.08936e-06
1.08939e-06
1.08936e-06
1.08939e-06
1.35093e-06
1.34899e-06
1.08926e-06
1.08943e-06
1.08925e-06
1.08943e-06
1.08945e-06
1.08925e-06
1.08945e-06
1.35103e-06
1.34909e-06
1.08936e-06
1.08935e-06
1.08935e-06
1.34913e-06
1.35098e-06
1.34901e-06
1.08936e-06
1.08939e-06
1.08935e-06
1.08939e-06
1.35096e-06
1.34894e-06
1.08925e-06
1.08943e-06
1.08925e-06
1.08942e-06
1.08945e-06
1.08925e-06
1.08945e-06
1.35105e-06
1.34904e-06
1.08936e-06
1.08934e-06
1.08935e-06
1.34909e-06
1.35092e-06
1.3491e-06
1.08936e-06
1.08939e-06
1.08935e-06
1.08939e-06
1.35086e-06
1.34903e-06
1.08925e-06
1.08943e-06
1.08925e-06
1.08942e-06
1.08945e-06
1.08925e-06
1.08945e-06
1.35096e-06
1.34913e-06
1.08935e-06
1.08934e-06
1.08935e-06
1.34919e-06
1.35101e-06
1.34905e-06
1.08935e-06
1.08939e-06
1.08935e-06
1.08939e-06
1.35094e-06
1.349e-06
1.08925e-06
1.08943e-06
1.08925e-06
1.08942e-06
1.08945e-06
1.08925e-06
1.08945e-06
1.35103e-06
1.34912e-06
1.08935e-06
1.08934e-06
1.08935e-06
1.34915e-06
1.35101e-06
1.34897e-06
1.08936e-06
1.08939e-06
1.08934e-06
1.08938e-06
1.35096e-06
1.34894e-06
1.08925e-06
1.08943e-06
1.08924e-06
1.08942e-06
1.08945e-06
1.08925e-06
1.08945e-06
1.35107e-06
1.34905e-06
1.08935e-06
1.08934e-06
1.08935e-06
1.34909e-06
1.35092e-06
1.34903e-06
1.08935e-06
1.08939e-06
1.08934e-06
1.08938e-06
1.35089e-06
1.34893e-06
1.08925e-06
1.08943e-06
1.08924e-06
1.08941e-06
1.08946e-06
1.08924e-06
1.08944e-06
1.35101e-06
1.34903e-06
1.08936e-06
1.08933e-06
1.08934e-06
1.34906e-06
1.35092e-06
1.34911e-06
1.08935e-06
1.08939e-06
1.08934e-06
1.08938e-06
1.35086e-06
1.34899e-06
1.08925e-06
1.08942e-06
1.08924e-06
1.08941e-06
1.08945e-06
1.08925e-06
1.08945e-06
1.35096e-06
1.3491e-06
1.08935e-06
1.08934e-06
1.08935e-06
1.34918e-06
1.35102e-06
1.34905e-06
1.08935e-06
1.08939e-06
1.08934e-06
1.08938e-06
1.3509e-06
1.34902e-06
1.08925e-06
1.08942e-06
1.08924e-06
1.08941e-06
1.08946e-06
1.08924e-06
1.08944e-06
1.35099e-06
1.34913e-06
1.08936e-06
1.08933e-06
1.08934e-06
1.34916e-06
1.35102e-06
1.34897e-06
1.08936e-06
1.08939e-06
1.08934e-06
1.08937e-06
1.35094e-06
1.34899e-06
1.08926e-06
1.08943e-06
1.08924e-06
1.08941e-06
1.08946e-06
1.08924e-06
1.08944e-06
1.35106e-06
1.34908e-06
1.08936e-06
1.08933e-06
1.08934e-06
1.34914e-06
1.35092e-06
1.349e-06
1.08936e-06
1.08939e-06
1.08934e-06
1.08937e-06
1.35094e-06
1.34893e-06
1.08926e-06
1.08943e-06
1.08924e-06
1.08941e-06
1.08946e-06
1.08924e-06
1.08943e-06
1.35105e-06
1.349e-06
1.08936e-06
1.08932e-06
1.08933e-06
1.34905e-06
1.35092e-06
1.34908e-06
1.08936e-06
1.08939e-06
1.08933e-06
1.08936e-06
1.35086e-06
1.34904e-06
1.08926e-06
1.08943e-06
1.08923e-06
1.0894e-06
1.08946e-06
1.08923e-06
1.08943e-06
1.35094e-06
1.34912e-06
1.08935e-06
1.08932e-06
1.08933e-06
1.34919e-06
1.35096e-06
1.34904e-06
1.08936e-06
1.0894e-06
1.08932e-06
1.08935e-06
1.35095e-06
1.34896e-06
1.08926e-06
1.08943e-06
1.08922e-06
1.08939e-06
1.08946e-06
1.08922e-06
1.08942e-06
1.351e-06
1.34911e-06
1.08936e-06
1.08931e-06
1.08932e-06
1.34915e-06
1.35103e-06
1.34896e-06
1.08937e-06
1.0894e-06
1.08931e-06
1.08934e-06
1.35093e-06
1.34893e-06
1.08927e-06
1.08944e-06
1.08921e-06
1.08938e-06
1.08947e-06
1.08921e-06
1.08941e-06
1.35105e-06
1.34905e-06
1.08936e-06
1.0893e-06
1.0893e-06
1.34905e-06
1.35088e-06
1.34907e-06
1.08937e-06
1.0894e-06
1.0893e-06
1.08934e-06
1.35086e-06
1.34903e-06
1.08927e-06
1.08944e-06
1.0892e-06
1.08938e-06
1.08947e-06
1.08921e-06
1.0894e-06
1.35096e-06
1.34914e-06
1.08937e-06
1.08929e-06
1.0893e-06
1.34911e-06
1.351e-06
1.34897e-06
1.08939e-06
1.08942e-06
1.08929e-06
1.08932e-06
1.35096e-06
1.34894e-06
1.08929e-06
1.08946e-06
1.08919e-06
1.08936e-06
1.08948e-06
1.08919e-06
1.08939e-06
1.35108e-06
1.34898e-06
1.08938e-06
1.08927e-06
1.08928e-06
1.34915e-06
1.35092e-06
1.34902e-06
1.0894e-06
1.08944e-06
1.08928e-06
1.08931e-06
1.3509e-06
1.34895e-06
1.0893e-06
1.08947e-06
1.08918e-06
1.08935e-06
1.0895e-06
1.08918e-06
1.08937e-06
1.35092e-06
1.3491e-06
1.0894e-06
1.08926e-06
1.08927e-06
1.34906e-06
1.35092e-06
1.34909e-06
1.08943e-06
1.08947e-06
1.08927e-06
1.0893e-06
1.35087e-06
1.34902e-06
1.08933e-06
1.08951e-06
1.08917e-06
1.08934e-06
1.08953e-06
1.08916e-06
1.08936e-06
1.351e-06
1.34911e-06
1.08942e-06
1.08925e-06
1.08925e-06
1.34906e-06
1.35101e-06
1.34879e-06
1.08948e-06
1.08951e-06
1.08886e-06
1.0889e-06
1.35095e-06
1.34873e-06
1.08937e-06
1.08955e-06
1.08876e-06
1.08893e-06
1.08956e-06
1.08877e-06
1.08896e-06
1.35105e-06
1.34883e-06
1.08946e-06
1.08884e-06
1.08885e-06
1.3489e-06
1.35064e-06
1.32919e-06
1.08917e-06
1.0892e-06
1.06708e-06
1.06711e-06
1.35058e-06
1.32917e-06
1.08906e-06
1.08924e-06
1.06705e-06
1.06707e-06
1.08926e-06
1.06711e-06
1.06715e-06
1.35066e-06
1.32921e-06
1.08914e-06
1.06711e-06
1.06711e-06
1.32926e-06
1.30703e-06
1.03001e-06
1.03004e-06
1.30703e-06
1.03e-06
1.02999e-06
5.21757e-07
5.21731e-07
5.21777e-07
1.03007e-06
1.30705e-06
1.03006e-06
1.9627e-08
3.60871e-09
1.25736e-08
1.25741e-08
1.53093e-09
4.25126e-09
1.11999e-08
6.83499e-09
1.52441e-09
3.86485e-09
7.12225e-09
2.12733e-08
5.1165e-09
6.955e-09
3.74895e-09
8.11796e-09
1.62897e-07
5.73456e-09
2.57989e-07
1.63357e-06
3.22382e-06
7.3418e-09
1.63273e-07
6.00165e-09
2.58892e-07
7.14668e-09
7.1433e-09
7.12931e-09
7.04619e-09
7.07754e-09
7.06863e-09
7.06597e-09
1.49701e-09
8.65849e-08
3.53662e-09
4.6307e-09
1.52196e-09
6.47435e-08
3.48727e-09
1.6234e-06
3.21102e-06
1.54038e-09
4.1011e-09
1.28864e-07
4.68163e-09
1.54604e-09
4.04906e-09
1.01416e-07
2.14654e-07
2.14062e-07
4.73069e-09
1.84729e-07
1.84541e-07
1.68527e-08
4.58706e-07
1.27495e-08
6.6439e-07
7.15277e-06
1.01748e-05
1.60613e-08
4.65103e-07
1.29082e-08
6.71502e-07
7.08464e-09
7.07455e-09
7.07395e-09
7.08045e-09
7.11402e-09