/*--------------------------------*- C++ -*----------------------------------*\
| =========                 |                                                 |
| \\      /  F ield         | OpenFOAM: The Open Source CFD Toolbox           |
|  \\    /   O peration     | Version:  v1906                                 |
|   \\  /    A nd           | Web:      www.OpenFOAM.com                      |
|    \\/     M anipulation  |                                                 |
\*---------------------------------------------------------------------------*/
FoamFile
{
    version     2.0;
    format      ascii;
    class       volScalarField;
    location    "237.5";
    object      k;
}
// * * * * * * * * * * * * * * * * * * * * * * * * * * * * * * * * * * * * * //

dimensions      [0 2 -2 0 0 0 0];


internalField   nonuniform List<scalar> 
171728
(
9.67239e-07
3.50627e-07
4.32245e-07
3.5107e-07
9.57242e-07
3.3444e-07
3.91495e-07
3.32661e-07
9.70862e-07
3.20817e-07
3.46088e-07
3.17062e-07
9.85154e-07
3.09295e-07
2.97304e-07
3.03031e-07
1.00049e-06
3.00148e-07
2.65237e-07
2.9032e-07
1.01596e-06
2.91788e-07
2.47805e-07
2.80154e-07
1.03213e-06
2.84235e-07
2.42048e-07
2.71983e-07
1.04941e-06
2.77736e-07
2.41419e-07
2.63999e-07
1.06647e-06
2.73304e-07
2.49457e-07
2.57295e-07
1.08489e-06
2.69104e-07
2.69965e-07
2.5241e-07
1.10376e-06
2.66655e-07
3.14822e-07
2.49382e-07
1.12379e-06
2.67553e-07
3.8836e-07
2.46858e-07
1.14417e-06
2.71086e-07
4.56501e-07
2.42975e-07
1.16497e-06
2.75617e-07
4.76604e-07
2.40249e-07
1.18528e-06
2.82773e-07
4.32145e-07
2.40611e-07
1.20746e-06
2.94093e-07
3.58929e-07
2.44744e-07
1.22666e-06
3.08823e-07
3.31876e-07
2.53331e-07
1.24918e-06
3.30163e-07
3.59228e-07
2.70282e-07
1.26806e-06
3.72419e-07
3.80839e-07
3.10774e-07
1.29126e-06
4.51421e-07
4.20898e-07
3.8125e-07
1.3132e-06
5.0346e-07
5.09284e-07
5.12416e-07
1.34106e-06
6.46025e-07
6.17271e-07
7.08674e-07
1.36751e-06
8.14735e-07
8.59398e-07
1.38314e-06
1.39456e-06
1.00877e-06
9.64933e-07
1.40322e-06
1.42729e-06
1.34202e-06
1.43078e-06
3.47739e-06
1.46996e-06
1.87407e-06
1.67675e-06
3.45713e-06
1.4991e-06
2.26564e-06
2.46599e-06
6.43224e-06
1.56797e-06
3.13936e-06
2.84474e-06
6.7315e-06
1.6003e-06
3.37551e-06
3.88402e-06
1.12109e-05
1.68298e-06
4.8944e-06
4.36508e-06
1.15903e-05
1.76569e-06
5.75049e-06
5.93347e-06
1.65544e-05
1.84262e-06
6.63281e-06
6.65291e-06
1.72521e-05
1.99048e-06
8.12854e-06
8.07683e-06
1.99403e-05
2.12761e-06
9.51247e-06
9.56187e-06
2.21535e-05
2.34226e-06
1.09586e-05
1.104e-05
2.39064e-05
2.55281e-06
1.27509e-05
1.26462e-05
2.56947e-05
2.8546e-06
1.41917e-05
1.44081e-05
2.71775e-05
3.19679e-06
1.61397e-05
1.61089e-05
2.86694e-05
3.59213e-06
1.78408e-05
1.78291e-05
2.99098e-05
4.10011e-06
1.97821e-05
1.96893e-05
3.1248e-05
4.61619e-06
2.15869e-05
2.15701e-05
3.24494e-05
5.31167e-06
2.3487e-05
2.34223e-05
3.36497e-05
6.07287e-06
2.5138e-05
2.51747e-05
3.482e-05
6.94175e-06
2.72706e-05
2.69329e-05
3.59141e-05
7.86106e-06
2.87652e-05
2.87596e-05
3.71809e-05
8.87361e-06
3.04897e-05
3.02818e-05
3.80444e-05
1.01386e-05
3.19773e-05
3.19025e-05
3.92386e-05
1.12195e-05
3.33123e-05
3.34396e-05
4.00633e-05
1.28392e-05
3.49015e-05
3.49332e-05
4.11512e-05
1.35416e-05
3.51801e-05
3.51907e-05
4.11344e-05
1.49522e-05
3.71291e-05
3.71395e-05
4.26207e-05
1.83631e-05
4.01393e-05
4.01395e-05
4.51515e-05
2.08555e-05
4.14833e-05
4.14841e-05
4.62346e-05
2.13108e-05
4.13774e-05
4.13791e-05
4.57434e-05
1.94684e-05
3.88116e-05
3.88162e-05
4.32758e-05
1.73445e-05
3.71873e-05
3.71942e-05
4.17482e-05
1.66922e-05
3.66308e-05
3.66363e-05
4.10507e-05
1.8896e-05
3.85402e-05
3.85435e-05
4.26589e-05
2.38083e-05
4.20101e-05
4.20129e-05
4.56834e-05
2.87083e-05
4.50467e-05
4.50489e-05
4.83355e-05
3.20802e-05
4.69609e-05
4.69628e-05
5.00092e-05
3.38559e-05
4.79049e-05
4.79066e-05
5.08364e-05
3.46445e-05
4.83148e-05
4.83162e-05
5.11925e-05
3.49716e-05
4.84848e-05
4.84859e-05
5.13427e-05
3.50709e-05
4.85283e-05
4.85295e-05
5.13888e-05
3.50785e-05
4.85224e-05
4.85238e-05
5.13817e-05
3.50913e-05
4.85344e-05
4.85355e-05
5.13911e-05
3.50937e-05
4.85356e-05
4.85367e-05
5.14034e-05
3.50895e-05
4.85288e-05
4.85302e-05
5.13795e-05
3.50916e-05
4.8534e-05
4.85353e-05
5.13987e-05
3.50901e-05
4.85302e-05
4.85314e-05
5.13862e-05
3.50908e-05
4.85332e-05
4.85347e-05
5.13951e-05
3.50901e-05
4.85305e-05
4.85317e-05
5.13869e-05
3.50902e-05
4.85326e-05
4.85337e-05
5.1396e-05
3.509e-05
4.85313e-05
4.85326e-05
5.13843e-05
3.50898e-05
4.85317e-05
4.85328e-05
5.13991e-05
3.50898e-05
4.85317e-05
4.8533e-05
5.13843e-05
3.50898e-05
4.85317e-05
4.8533e-05
5.13896e-05
3.50898e-05
4.85318e-05
4.85331e-05
5.13981e-05
3.50898e-05
4.85319e-05
4.85333e-05
5.13898e-05
3.50897e-05
4.85323e-05
4.85335e-05
5.13845e-05
3.50897e-05
4.85314e-05
4.85325e-05
5.13878e-05
3.50898e-05
4.85322e-05
4.85332e-05
5.13992e-05
3.50899e-05
4.8532e-05
4.85331e-05
5.13908e-05
3.50899e-05
4.85319e-05
4.8533e-05
5.13855e-05
3.509e-05
4.85319e-05
4.85329e-05
5.13864e-05
3.509e-05
4.85324e-05
4.85334e-05
5.1399e-05
3.50899e-05
4.8532e-05
4.85332e-05
5.13865e-05
3.50899e-05
4.85323e-05
4.85331e-05
5.13862e-05
3.509e-05
4.8533e-05
4.8534e-05
5.13982e-05
3.50901e-05
4.85332e-05
4.8534e-05
5.13929e-05
3.50905e-05
4.85341e-05
4.85353e-05
5.13837e-05
3.50905e-05
4.8536e-05
4.8537e-05
5.13913e-05
3.50788e-05
4.85169e-05
4.85175e-05
5.13907e-05
3.45467e-05
4.72681e-05
4.72671e-05
5.09326e-05
3.54316e-07
3.46424e-07
3.46884e-07
3.44348e-07
3.46044e-07
3.43111e-07
9.92663e-07
9.95771e-07
9.97939e-07
9.95718e-07
3.38619e-07
3.34967e-07
3.48802e-07
3.56244e-07
3.40159e-07
3.53507e-07
3.51318e-07
3.3425e-07
3.5756e-07
3.57689e-07
3.4579e-07
3.47039e-07
3.41531e-07
3.27117e-07
3.55994e-07
3.56095e-07
3.44181e-07
3.44467e-07
3.43815e-07
3.38195e-07
3.38855e-07
3.45839e-07
3.33864e-07
3.51321e-07
4.01705e-07
3.41524e-07
3.35641e-07
3.30788e-07
3.15671e-07
3.42147e-07
3.44108e-07
3.31745e-07
3.34463e-07
3.24265e-07
3.11843e-07
3.40954e-07
3.40773e-07
3.30748e-07
3.30476e-07
3.37032e-07
3.24005e-07
3.30682e-07
3.31288e-07
3.20128e-07
3.38346e-07
3.58406e-07
3.28401e-07
3.1972e-07
3.12619e-07
2.99334e-07
3.2846e-07
3.30707e-07
3.19341e-07
3.1967e-07
3.09266e-07
2.9792e-07
3.26716e-07
3.2738e-07
3.15511e-07
3.18382e-07
3.28684e-07
3.11918e-07
3.22945e-07
3.17462e-07
3.03799e-07
3.25121e-07
3.0838e-07
3.1552e-07
3.05452e-07
2.96562e-07
2.85355e-07
3.16451e-07
3.16373e-07
3.08427e-07
3.07756e-07
2.95505e-07
2.85789e-07
3.12349e-07
3.15511e-07
3.04532e-07
3.07201e-07
3.21136e-07
3.02317e-07
3.15589e-07
3.0103e-07
2.88129e-07
3.1244e-07
2.71847e-07
3.03872e-07
2.92461e-07
2.8298e-07
2.74094e-07
3.05917e-07
3.05051e-07
2.98907e-07
2.97666e-07
2.83702e-07
2.7554e-07
3.02344e-07
3.04644e-07
2.97231e-07
2.976e-07
3.14078e-07
2.93788e-07
3.09482e-07
2.85658e-07
2.74706e-07
3.01278e-07
2.50763e-07
2.94229e-07
2.81877e-07
2.72283e-07
2.66743e-07
2.96679e-07
2.95633e-07
2.90387e-07
2.90839e-07
2.73724e-07
2.6692e-07
2.95724e-07
2.9547e-07
2.91115e-07
2.89507e-07
3.07917e-07
2.85972e-07
3.0272e-07
2.72501e-07
2.62314e-07
2.92073e-07
2.42832e-07
2.86e-07
2.73625e-07
2.65571e-07
2.61874e-07
2.88589e-07
2.89494e-07
2.83637e-07
2.84971e-07
2.65372e-07
2.59604e-07
2.89811e-07
2.87838e-07
2.87156e-07
2.83189e-07
3.01055e-07
2.7924e-07
2.96731e-07
2.60214e-07
2.51723e-07
2.84166e-07
2.41363e-07
2.79757e-07
2.65576e-07
2.60775e-07
2.56215e-07
2.82169e-07
2.83205e-07
2.78321e-07
2.78964e-07
2.58152e-07
2.52336e-07
2.86305e-07
2.81812e-07
2.80539e-07
2.78035e-07
2.95322e-07
2.74264e-07
2.92587e-07
2.50135e-07
2.45199e-07
2.78576e-07
2.45907e-07
2.75465e-07
2.58515e-07
2.54853e-07
2.48235e-07
2.77452e-07
2.7789e-07
2.75359e-07
2.7577e-07
2.50914e-07
2.45543e-07
2.77554e-07
2.77103e-07
2.67418e-07
2.74816e-07
2.91759e-07
2.70026e-07
2.90085e-07
2.4455e-07
2.44415e-07
2.74652e-07
2.63122e-07
2.7353e-07
2.53252e-07
2.46549e-07
2.38535e-07
2.74836e-07
2.7524e-07
2.73021e-07
2.73399e-07
2.44215e-07
2.38638e-07
2.64306e-07
2.74348e-07
2.56615e-07
2.73132e-07
2.90083e-07
2.66795e-07
2.90719e-07
2.4437e-07
2.47931e-07
2.73129e-07
3.00798e-07
2.72369e-07
2.49898e-07
2.37412e-07
2.29325e-07
2.72566e-07
2.73149e-07
2.72094e-07
2.72671e-07
2.37786e-07
2.34554e-07
2.5457e-07
2.73124e-07
2.52204e-07
2.73716e-07
2.91391e-07
2.67078e-07
2.93104e-07
2.48369e-07
2.58327e-07
2.72289e-07
3.68288e-07
2.72634e-07
2.47203e-07
2.28806e-07
2.25727e-07
2.72198e-07
2.72755e-07
2.73506e-07
2.73995e-07
2.3432e-07
2.32551e-07
2.52234e-07
2.74203e-07
2.53762e-07
2.76053e-07
2.93484e-07
2.7032e-07
2.94801e-07
2.59084e-07
2.68087e-07
2.72895e-07
4.43165e-07
2.73762e-07
2.43253e-07
2.2575e-07
2.25228e-07
2.74271e-07
2.74623e-07
2.77168e-07
2.77037e-07
2.32454e-07
2.31163e-07
2.55049e-07
2.76718e-07
2.58608e-07
2.79164e-07
2.95528e-07
2.7413e-07
2.9891e-07
2.68156e-07
2.6793e-07
2.74234e-07
4.75885e-07
2.76302e-07
2.40132e-07
2.25545e-07
2.25033e-07
2.78301e-07
2.78047e-07
2.82309e-07
2.8189e-07
2.31345e-07
2.30564e-07
2.59683e-07
2.79765e-07
2.63372e-07
2.83515e-07
3.00884e-07
2.80589e-07
3.09808e-07
2.66919e-07
2.5029e-07
2.77359e-07
4.55416e-07
2.82076e-07
2.39908e-07
2.25609e-07
2.26795e-07
2.83952e-07
2.8351e-07
2.91279e-07
2.90497e-07
2.31195e-07
2.33942e-07
2.646e-07
2.84908e-07
2.69436e-07
2.91531e-07
3.13704e-07
2.90668e-07
3.27435e-07
2.48649e-07
2.40434e-07
2.84088e-07
3.75795e-07
2.92297e-07
2.43294e-07
2.28732e-07
2.31508e-07
2.95034e-07
2.93801e-07
3.03658e-07
3.0554e-07
2.35441e-07
2.43613e-07
2.72677e-07
2.94642e-07
2.81154e-07
3.04202e-07
3.31846e-07
3.04201e-07
3.48332e-07
2.41448e-07
2.39472e-07
2.95438e-07
3.32635e-07
3.07479e-07
2.50736e-07
2.34212e-07
2.55113e-07
3.09068e-07
3.11419e-07
3.28641e-07
3.28221e-07
2.46292e-07
2.63386e-07
2.8609e-07
3.07958e-07
3.03971e-07
3.28373e-07
3.52348e-07
3.26396e-07
3.67969e-07
2.41687e-07
2.67036e-07
3.11321e-07
3.51591e-07
3.29435e-07
2.6401e-07
2.59291e-07
2.81592e-07
3.35079e-07
3.32828e-07
3.585e-07
3.74182e-07
2.68412e-07
3.12874e-07
3.10302e-07
3.34489e-07
3.3549e-07
3.60083e-07
3.7181e-07
3.66223e-07
3.90551e-07
2.74565e-07
2.92199e-07
3.35207e-07
3.76769e-07
3.66523e-07
3.00471e-07
2.89905e-07
3.79929e-07
3.63649e-07
3.79265e-07
4.26179e-07
3.99826e-07
3.21023e-07
3.45486e-07
3.39464e-07
3.68753e-07
3.94431e-07
4.0999e-07
3.93773e-07
3.98949e-07
4.12104e-07
3.02659e-07
3.61734e-07
3.72902e-07
4.1176e-07
4.03075e-07
3.34764e-07
4.10315e-07
4.16441e-07
4.38877e-07
4.54043e-07
4.66105e-07
5.25444e-07
4.38118e-07
6.17354e-07
4.10019e-07
4.21886e-07
4.42122e-07
4.90241e-07
4.39125e-07
5.0847e-07
4.73535e-07
3.86382e-07
4.9927e-07
4.32221e-07
4.85977e-07
4.90921e-07
5.04254e-07
4.59884e-07
7.81751e-07
4.97379e-07
5.18083e-07
6.28341e-07
5.84554e-07
5.63468e-07
7.00303e-07
4.69276e-07
5.13407e-07
5.97165e-07
5.9776e-07
4.81305e-07
5.94129e-07
5.64423e-07
5.65844e-07
6.8156e-07
5.01099e-07
5.95958e-07
5.80264e-07
6.11948e-07
8.33768e-07
8.74858e-07
6.62446e-07
6.44836e-07
7.05024e-07
7.22159e-07
8.72657e-07
9.7846e-07
6.32009e-07
6.18788e-07
6.77883e-07
7.90782e-07
5.92576e-07
7.20247e-07
7.82006e-07
7.60426e-07
1.13391e-06
6.15445e-07
7.77421e-07
7.96542e-07
1.22361e-06
9.50888e-07
1.90945e-06
7.88031e-07
8.20948e-07
1.01717e-06
9.9091e-07
1.05775e-06
1.85566e-06
7.47262e-07
8.64261e-07
9.77111e-07
9.33471e-07
8.63629e-07
9.70455e-07
9.30687e-07
1.34338e-06
1.50415e-06
8.65072e-07
9.35077e-07
9.21434e-07
1.39769e-06
1.93844e-06
2.71259e-06
1.02966e-06
1.02291e-06
1.32824e-06
1.29189e-06
1.87869e-06
2.74125e-06
1.00198e-06
9.76135e-07
1.31126e-06
1.3252e-06
9.43569e-07
1.30303e-06
1.39582e-06
1.51647e-06
3.06457e-06
9.47088e-07
1.33154e-06
1.42261e-06
3.34059e-06
3.04062e-06
3.33267e-06
1.42091e-06
1.33463e-06
1.58404e-06
1.79144e-06
2.97777e-06
3.90574e-06
1.38013e-06
1.42657e-06
1.52726e-06
1.65319e-06
1.46884e-06
1.75712e-06
1.53563e-06
3.24382e-06
3.76232e-06
1.47602e-06
1.61943e-06
1.54697e-06
3.21672e-06
3.68301e-06
5.92113e-06
1.81767e-06
1.91462e-06
2.2663e-06
2.05781e-06
4.52637e-06
5.13768e-06
1.76778e-06
1.70526e-06
2.282e-06
2.31989e-06
1.66919e-06
2.05749e-06
2.34514e-06
4.01471e-06
5.57783e-06
1.72723e-06
2.32539e-06
2.34899e-06
6.34213e-06
5.96446e-06
6.85554e-06
2.28233e-06
2.21597e-06
2.75264e-06
3.05168e-06
5.24509e-06
8.73188e-06
2.29842e-06
2.46158e-06
2.6727e-06
2.62553e-06
2.39944e-06
2.99924e-06
2.53489e-06
6.28703e-06
7.00048e-06
2.38565e-06
2.62074e-06
2.54939e-06
6.18937e-06
8.43119e-06
1.07031e-05
3.23806e-06
3.20581e-06
3.67541e-06
3.32064e-06
9.05093e-06
8.91831e-06
3.16223e-06
2.86312e-06
3.64631e-06
3.83386e-06
2.89045e-06
3.28168e-06
3.81986e-06
7.10845e-06
1.11305e-05
2.94901e-06
3.82872e-06
3.81009e-06
1.11312e-05
1.05436e-05
1.17276e-05
3.67804e-06
3.38285e-06
4.28269e-06
4.55242e-06
8.96276e-06
1.2642e-05
3.66012e-06
3.89161e-06
4.29057e-06
4.04093e-06
3.84617e-06
4.54023e-06
4.0216e-06
1.1315e-05
1.08867e-05
3.83794e-06
4.01374e-06
4.05874e-06
1.06705e-05
1.33245e-05
1.58337e-05
4.78645e-06
4.91055e-06
5.57019e-06
5.56877e-06
1.37853e-05
1.56899e-05
4.7115e-06
4.40506e-06
5.54295e-06
5.75575e-06
4.50079e-06
5.57325e-06
5.61425e-06
1.13847e-05
1.64054e-05
4.56114e-06
5.76533e-06
5.64247e-06
1.63288e-05
1.59855e-05
1.68465e-05
5.74085e-06
5.75007e-06
6.39096e-06
6.3401e-06
1.58574e-05
1.67682e-05
5.76539e-06
5.9381e-06
6.35955e-06
6.419e-06
5.83174e-06
6.33872e-06
6.41352e-06
1.67835e-05
1.70416e-05
5.83777e-06
6.40161e-06
6.43343e-06
1.68946e-05
1.73665e-05
1.9413e-05
6.66157e-06
6.63852e-06
7.7177e-06
7.75166e-06
1.72942e-05
1.9487e-05
6.59886e-06
6.66924e-06
7.73991e-06
7.7343e-06
6.64197e-06
7.7738e-06
7.67249e-06
1.72877e-05
1.93992e-05
6.67323e-06
7.6684e-06
7.67681e-06
1.9413e-05
1.99834e-05
2.17023e-05
8.12846e-06
8.084e-06
9.16289e-06
9.18835e-06
2.0034e-05
2.17156e-05
8.1684e-06
8.13487e-06
9.06344e-06
9.22082e-06
8.053e-06
9.14796e-06
9.13067e-06
2.00125e-05
2.17999e-05
8.07441e-06
9.24023e-06
9.17833e-06
2.17114e-05
2.20809e-05
2.35469e-05
9.468e-06
9.60027e-06
1.0614e-05
1.05506e-05
2.21472e-05
2.34953e-05
9.35822e-06
9.5526e-06
1.07055e-05
1.06872e-05
9.50408e-06
1.05596e-05
1.05903e-05
2.21975e-05
2.35466e-05
9.51816e-06
1.06156e-05
1.05941e-05
2.35071e-05
2.40218e-05
2.52763e-05
1.10581e-05
1.09088e-05
1.22765e-05
1.23527e-05
2.39056e-05
2.53677e-05
1.11608e-05
1.1111e-05
1.2154e-05
1.22326e-05
1.09566e-05
1.23601e-05
1.22203e-05
2.39724e-05
2.5293e-05
1.09959e-05
1.22455e-05
1.22598e-05
2.52923e-05
2.56087e-05
2.68077e-05
1.26082e-05
1.27259e-05
1.38191e-05
1.37426e-05
2.5757e-05
2.67052e-05
1.24867e-05
1.26043e-05
1.3866e-05
1.40346e-05
1.26401e-05
1.37636e-05
1.38646e-05
2.56752e-05
2.68848e-05
1.26502e-05
1.40066e-05
1.38607e-05
2.68158e-05
2.72231e-05
2.83661e-05
1.43693e-05
1.42607e-05
1.57504e-05
1.57668e-05
2.70636e-05
2.83818e-05
1.43911e-05
1.44892e-05
1.57232e-05
1.55962e-05
1.43123e-05
1.56735e-05
1.56637e-05
2.72476e-05
2.82469e-05
1.43273e-05
1.55868e-05
1.57085e-05
2.83407e-05
2.86571e-05
2.95979e-05
1.60675e-05
1.61227e-05
1.73876e-05
1.73415e-05
2.87022e-05
2.95982e-05
1.60949e-05
1.60525e-05
1.73439e-05
1.75632e-05
1.61133e-05
1.74035e-05
1.74293e-05
2.85926e-05
2.96721e-05
1.61427e-05
1.75242e-05
1.74005e-05
2.95961e-05
2.99673e-05
3.09831e-05
1.79519e-05
1.78708e-05
1.93181e-05
1.93923e-05
2.99459e-05
3.09631e-05
1.7841e-05
1.79519e-05
1.93574e-05
1.91651e-05
1.78292e-05
1.93165e-05
1.92418e-05
2.99484e-05
3.08135e-05
1.78052e-05
1.90814e-05
1.92235e-05
3.09201e-05
3.12472e-05
3.21231e-05
1.96787e-05
1.97782e-05
2.10475e-05
2.09589e-05
3.12288e-05
3.20649e-05
1.97872e-05
1.97005e-05
2.09892e-05
2.12021e-05
1.97784e-05
2.10854e-05
2.11241e-05
3.11783e-05
3.22528e-05
1.97389e-05
2.12175e-05
2.10743e-05
3.21799e-05
3.2445e-05
3.33496e-05
2.15896e-05
2.15109e-05
2.29412e-05
2.32086e-05
3.24047e-05
3.35228e-05
2.14622e-05
2.1602e-05
2.29963e-05
2.29519e-05
2.15275e-05
2.30892e-05
2.2905e-05
3.24954e-05
3.33193e-05
2.15072e-05
2.28625e-05
2.29369e-05
3.33491e-05
3.36004e-05
3.45077e-05
2.33292e-05
2.36e-05
2.47219e-05
2.45441e-05
3.37555e-05
3.43645e-05
2.34839e-05
2.34865e-05
2.48403e-05
2.48244e-05
2.33747e-05
2.46234e-05
2.47436e-05
3.36513e-05
3.45929e-05
2.34023e-05
2.48147e-05
2.47367e-05
3.45544e-05
3.48156e-05
3.57236e-05
2.5259e-05
2.5009e-05
2.66359e-05
2.66257e-05
3.46477e-05
3.58164e-05
2.52897e-05
2.51949e-05
2.65416e-05
2.64702e-05
2.52425e-05
2.68078e-05
2.65672e-05
3.48136e-05
3.55843e-05
2.52162e-05
2.64236e-05
2.65024e-05
3.56689e-05
3.59493e-05
3.67178e-05
2.70268e-05
2.70763e-05
2.82035e-05
2.82412e-05
3.60691e-05
3.66943e-05
2.69549e-05
2.69719e-05
2.82643e-05
2.8362e-05
2.69696e-05
2.838e-05
2.83888e-05
3.58833e-05
3.68758e-05
2.69148e-05
2.83505e-05
2.83818e-05
3.68936e-05
3.69762e-05
3.78997e-05
2.86116e-05
2.86834e-05
2.98218e-05
3.00417e-05
3.69364e-05
3.79775e-05
2.87161e-05
2.87738e-05
3.00384e-05
2.99429e-05
2.88641e-05
3.00414e-05
2.99304e-05
3.71073e-05
3.78275e-05
2.88583e-05
2.98847e-05
2.98903e-05
3.78601e-05
3.81605e-05
3.90244e-05
3.02592e-05
3.04543e-05
3.16018e-05
3.15723e-05
3.82406e-05
3.89366e-05
3.04923e-05
3.03533e-05
3.17838e-05
3.15981e-05
3.03007e-05
3.17212e-05
3.1695e-05
3.80626e-05
3.89167e-05
3.02538e-05
3.15623e-05
3.16661e-05
3.89897e-05
3.92286e-05
3.99391e-05
3.19467e-05
3.18591e-05
3.3049e-05
3.29491e-05
3.91123e-05
3.98199e-05
3.20749e-05
3.19189e-05
3.30382e-05
3.30073e-05
3.20405e-05
3.2839e-05
3.29658e-05
3.9139e-05
3.99152e-05
3.20227e-05
3.29642e-05
3.29402e-05
3.98334e-05
4.02112e-05
4.10514e-05
3.35391e-05
3.34712e-05
3.48054e-05
3.47895e-05
4.01082e-05
4.10299e-05
3.35236e-05
3.35002e-05
3.48024e-05
3.4736e-05
3.34387e-05
3.46561e-05
3.48136e-05
4.01857e-05
4.1004e-05
3.34015e-05
3.47062e-05
3.47863e-05
4.10267e-05
4.11466e-05
4.10249e-05
3.50217e-05
3.49988e-05
3.51922e-05
3.51554e-05
4.11342e-05
4.10473e-05
3.49965e-05
3.49289e-05
3.51121e-05
3.50679e-05
3.50511e-05
3.51008e-05
3.51961e-05
4.11006e-05
4.10006e-05
3.50483e-05
3.51147e-05
3.52302e-05
4.10903e-05
4.10784e-05
4.2237e-05
3.52712e-05
3.52338e-05
3.64774e-05
3.64501e-05
4.11059e-05
4.22473e-05
3.51696e-05
3.51463e-05
3.63693e-05
3.64165e-05
3.52373e-05
3.63883e-05
3.63084e-05
4.10598e-05
4.22315e-05
3.52757e-05
3.6398e-05
3.63303e-05
4.2163e-05
4.27069e-05
4.48138e-05
3.72035e-05
3.71824e-05
3.95177e-05
3.95165e-05
4.27137e-05
4.48225e-05
3.71131e-05
3.71721e-05
3.94806e-05
3.9545e-05
3.70381e-05
3.9509e-05
3.94362e-05
4.27061e-05
4.48392e-05
3.70519e-05
3.95116e-05
3.94333e-05
4.47615e-05
4.5187e-05
4.60862e-05
4.01322e-05
4.01338e-05
4.12809e-05
4.12811e-05
4.51976e-05
4.61001e-05
4.01064e-05
4.01647e-05
4.12629e-05
4.13044e-05
4.00852e-05
4.13045e-05
4.12959e-05
4.52145e-05
4.6112e-05
4.00799e-05
4.13045e-05
4.12922e-05
4.61113e-05
4.62043e-05
4.58248e-05
4.14597e-05
4.14593e-05
4.15398e-05
4.15375e-05
4.62184e-05
4.58336e-05
4.14407e-05
4.14787e-05
4.15186e-05
4.15484e-05
4.1483e-05
4.15601e-05
4.15713e-05
4.62289e-05
4.58332e-05
4.1481e-05
4.15617e-05
4.15727e-05
4.58743e-05
4.56931e-05
4.33925e-05
4.13624e-05
4.13572e-05
3.93987e-05
3.93817e-05
4.57002e-05
4.33824e-05
4.13397e-05
4.13577e-05
3.9373e-05
3.93697e-05
4.14e-05
3.93893e-05
3.94175e-05
4.56983e-05
4.33806e-05
4.14046e-05
3.9393e-05
3.94269e-05
4.34151e-05
4.3256e-05
4.18137e-05
3.88257e-05
3.8807e-05
3.75298e-05
3.75116e-05
4.32453e-05
4.18008e-05
3.88e-05
3.87965e-05
3.75071e-05
3.75064e-05
3.88347e-05
3.75085e-05
3.75221e-05
4.32439e-05
4.18046e-05
3.88434e-05
3.75155e-05
3.75267e-05
4.18137e-05
4.17492e-05
4.10334e-05
3.72077e-05
3.71913e-05
3.66595e-05
3.66494e-05
4.17368e-05
4.10271e-05
3.71872e-05
3.71881e-05
3.66454e-05
3.66513e-05
3.7198e-05
3.66443e-05
3.66499e-05
4.17408e-05
4.1033e-05
3.72009e-05
3.665e-05
3.66488e-05
4.10295e-05
4.10544e-05
4.2186e-05
3.66447e-05
3.66358e-05
3.77755e-05
3.77749e-05
4.10488e-05
4.21843e-05
3.66318e-05
3.66384e-05
3.77705e-05
3.77805e-05
3.66358e-05
3.77722e-05
3.77751e-05
4.10546e-05
4.21896e-05
3.66343e-05
3.77756e-05
3.77715e-05
4.2187e-05
4.26575e-05
4.51353e-05
3.8544e-05
3.85431e-05
4.11328e-05
4.11328e-05
4.26559e-05
4.51342e-05
3.85389e-05
3.85474e-05
4.11295e-05
4.11349e-05
3.85446e-05
4.11307e-05
4.11352e-05
4.26607e-05
4.51374e-05
3.85419e-05
4.11337e-05
4.11333e-05
4.51376e-05
4.56813e-05
4.79202e-05
4.20122e-05
4.20125e-05
4.43855e-05
4.43862e-05
4.56803e-05
4.79192e-05
4.20097e-05
4.2014e-05
4.43842e-05
4.43864e-05
4.20149e-05
4.43846e-05
4.43882e-05
4.5683e-05
4.79207e-05
4.20132e-05
4.43869e-05
4.43869e-05
4.7922e-05
4.83339e-05
4.97651e-05
4.50476e-05
4.50483e-05
4.65886e-05
4.6589e-05
4.83331e-05
4.97642e-05
4.50467e-05
4.50483e-05
4.65877e-05
4.65887e-05
4.50503e-05
4.65883e-05
4.65911e-05
4.83343e-05
4.97651e-05
4.50492e-05
4.65902e-05
4.65904e-05
4.97668e-05
5.00075e-05
5.07105e-05
4.69611e-05
4.69615e-05
4.77353e-05
4.77354e-05
5.00067e-05
5.07098e-05
4.69604e-05
4.69612e-05
4.77345e-05
4.77353e-05
4.69638e-05
4.77357e-05
4.77382e-05
5.00075e-05
5.07108e-05
4.69631e-05
4.77375e-05
4.77377e-05
5.07127e-05
5.08342e-05
5.11232e-05
4.79042e-05
4.79043e-05
4.82408e-05
4.82409e-05
5.08337e-05
5.11229e-05
4.79036e-05
4.79043e-05
4.82403e-05
4.8241e-05
4.79073e-05
4.8242e-05
4.8244e-05
5.08346e-05
5.11237e-05
4.79069e-05
4.82435e-05
4.82438e-05
5.11256e-05
5.11901e-05
5.1303e-05
4.83135e-05
4.83136e-05
4.84553e-05
4.84557e-05
5.11899e-05
5.1303e-05
4.83131e-05
4.83136e-05
4.8455e-05
4.84554e-05
4.83167e-05
4.8457e-05
4.84585e-05
5.11906e-05
5.13034e-05
4.83165e-05
4.84581e-05
4.84584e-05
5.13053e-05
5.13403e-05
5.13625e-05
4.84831e-05
4.84835e-05
4.85236e-05
4.8524e-05
5.13403e-05
5.13626e-05
4.84828e-05
4.84832e-05
4.85233e-05
4.85236e-05
4.84863e-05
4.85252e-05
4.85268e-05
5.13406e-05
5.13628e-05
4.84863e-05
4.85264e-05
4.85268e-05
5.13649e-05
5.13863e-05
5.13618e-05
4.85268e-05
4.85271e-05
4.8523e-05
4.85233e-05
5.13865e-05
5.13614e-05
4.85265e-05
4.85267e-05
4.85227e-05
4.8523e-05
4.853e-05
4.85245e-05
4.85264e-05
5.13866e-05
5.13622e-05
4.853e-05
4.85259e-05
4.85263e-05
5.13644e-05
5.13791e-05
5.13621e-05
4.85209e-05
4.85212e-05
4.85267e-05
4.85272e-05
5.13787e-05
5.13624e-05
4.85206e-05
4.8521e-05
4.85264e-05
4.85268e-05
4.85243e-05
4.85285e-05
4.853e-05
5.13794e-05
5.13626e-05
4.85242e-05
4.85296e-05
4.85299e-05
5.13644e-05
5.13888e-05
5.13821e-05
4.85327e-05
4.85332e-05
4.85364e-05
4.85368e-05
5.1389e-05
5.1382e-05
4.85324e-05
4.85327e-05
4.85361e-05
4.85363e-05
4.85359e-05
4.8538e-05
4.85395e-05
5.13892e-05
5.13822e-05
4.85358e-05
4.8539e-05
4.85394e-05
5.13841e-05
5.14013e-05
5.13577e-05
4.8534e-05
4.85343e-05
4.85271e-05
4.85275e-05
5.14011e-05
5.13574e-05
4.85338e-05
4.85339e-05
4.85269e-05
4.85272e-05
4.85371e-05
4.85286e-05
4.85303e-05
5.14014e-05
5.13579e-05
4.85369e-05
4.853e-05
4.85304e-05
5.13599e-05
5.13771e-05
5.13726e-05
4.85272e-05
4.85276e-05
4.85321e-05
4.85325e-05
5.13769e-05
5.1373e-05
4.8527e-05
4.85273e-05
4.85317e-05
4.85321e-05
4.85305e-05
4.85337e-05
4.85354e-05
5.13774e-05
5.13735e-05
4.85306e-05
4.85349e-05
4.85353e-05
5.13756e-05
5.13959e-05
5.13669e-05
4.85325e-05
4.85328e-05
4.853e-05
4.85302e-05
5.13962e-05
5.13662e-05
4.85322e-05
4.85325e-05
4.85298e-05
4.85299e-05
4.85357e-05
4.85314e-05
4.8533e-05
5.13966e-05
5.13665e-05
4.85356e-05
4.85325e-05
4.85328e-05
5.13684e-05
5.13846e-05
5.1367e-05
4.85286e-05
4.8529e-05
4.85301e-05
4.85306e-05
5.1384e-05
5.13679e-05
4.85284e-05
4.85286e-05
4.85298e-05
4.85303e-05
4.85319e-05
4.85317e-05
4.85334e-05
5.13843e-05
5.13685e-05
4.85317e-05
4.85332e-05
4.85336e-05
5.13705e-05
5.1392e-05
5.13677e-05
4.85317e-05
4.85321e-05
4.85297e-05
4.853e-05
5.13926e-05
5.13666e-05
4.85314e-05
4.85318e-05
4.85293e-05
4.85296e-05
4.85349e-05
4.85312e-05
4.85329e-05
5.13931e-05
5.13671e-05
4.8535e-05
4.85323e-05
4.85327e-05
5.13693e-05
5.13852e-05
5.13687e-05
4.85289e-05
4.85293e-05
4.85306e-05
4.85312e-05
5.13843e-05
5.13702e-05
4.85285e-05
4.85288e-05
4.85304e-05
4.85307e-05
4.85322e-05
4.85323e-05
4.85339e-05
5.13847e-05
5.13702e-05
4.8532e-05
4.85334e-05
4.85338e-05
5.13719e-05
5.13929e-05
5.13644e-05
4.85309e-05
4.85314e-05
4.85296e-05
4.853e-05
5.13941e-05
5.13628e-05
4.85308e-05
4.8531e-05
4.85292e-05
4.85295e-05
4.85342e-05
4.85312e-05
4.85329e-05
5.13941e-05
5.13637e-05
4.85341e-05
4.85325e-05
4.8533e-05
5.13661e-05
5.13823e-05
5.13735e-05
4.85296e-05
4.85302e-05
4.853e-05
4.85307e-05
5.13811e-05
5.1375e-05
4.85292e-05
4.85295e-05
4.85297e-05
4.85301e-05
4.8533e-05
4.85317e-05
4.85334e-05
5.13819e-05
5.1375e-05
4.8533e-05
4.85327e-05
4.85332e-05
5.13768e-05
5.13962e-05
5.13591e-05
4.853e-05
4.85305e-05
4.85298e-05
4.85305e-05
5.13969e-05
5.13594e-05
4.85297e-05
4.85301e-05
4.85293e-05
4.85298e-05
4.85334e-05
4.85315e-05
4.85332e-05
5.13971e-05
5.13599e-05
4.85332e-05
4.85328e-05
4.85332e-05
5.13618e-05
5.13804e-05
5.13726e-05
4.85299e-05
4.85308e-05
4.85298e-05
4.85302e-05
5.13827e-05
5.13695e-05
4.85293e-05
4.85299e-05
4.85294e-05
4.85299e-05
4.85333e-05
4.85315e-05
4.85332e-05
5.13828e-05
5.13696e-05
4.85333e-05
4.85328e-05
4.85331e-05
5.13727e-05
5.13894e-05
5.13714e-05
4.85299e-05
4.85304e-05
4.853e-05
4.85308e-05
5.13865e-05
5.13735e-05
4.85295e-05
4.853e-05
4.85293e-05
4.853e-05
4.85333e-05
4.85317e-05
4.85333e-05
5.13866e-05
5.13742e-05
4.85332e-05
4.85331e-05
4.85334e-05
5.13756e-05
5.13947e-05
5.13604e-05
4.853e-05
4.85306e-05
4.85299e-05
4.85305e-05
5.13959e-05
5.13616e-05
4.85295e-05
4.853e-05
4.85294e-05
4.85302e-05
4.85334e-05
4.85316e-05
4.85332e-05
5.13963e-05
5.13634e-05
4.85334e-05
4.85331e-05
4.85332e-05
5.13645e-05
5.13844e-05
5.13642e-05
4.85303e-05
4.85309e-05
4.85294e-05
4.85303e-05
5.13868e-05
5.13632e-05
4.85296e-05
4.85304e-05
4.85291e-05
4.85298e-05
4.85334e-05
4.85317e-05
4.85333e-05
5.13891e-05
5.13624e-05
4.85335e-05
4.85328e-05
4.85331e-05
5.1365e-05
5.13823e-05
5.13744e-05
4.85297e-05
4.85307e-05
4.85296e-05
4.85303e-05
5.13821e-05
5.13704e-05
4.85294e-05
4.85303e-05
4.85292e-05
4.85298e-05
4.8534e-05
4.85314e-05
4.85326e-05
5.1382e-05
5.13692e-05
4.85338e-05
4.85326e-05
4.85327e-05
5.13709e-05
5.13931e-05
5.13693e-05
4.85296e-05
4.85303e-05
4.85296e-05
4.85304e-05
5.13872e-05
5.13744e-05
4.85293e-05
4.85298e-05
4.85292e-05
4.85298e-05
4.85326e-05
4.8532e-05
4.85343e-05
5.13861e-05
5.13749e-05
4.85326e-05
4.85331e-05
4.85341e-05
5.13773e-05
5.13935e-05
5.13602e-05
4.85299e-05
4.85304e-05
4.85295e-05
4.85302e-05
5.1395e-05
5.13684e-05
4.85296e-05
4.85299e-05
4.85291e-05
4.85297e-05
4.85344e-05
4.85313e-05
4.85329e-05
5.13951e-05
5.13689e-05
4.85342e-05
4.85324e-05
4.85327e-05
5.13654e-05
5.13839e-05
5.13653e-05
4.85301e-05
4.85306e-05
4.85296e-05
4.85299e-05
5.13934e-05
5.13599e-05
4.85296e-05
4.85301e-05
4.85293e-05
4.85296e-05
4.85336e-05
4.85311e-05
4.8533e-05
5.13936e-05
5.13608e-05
4.85334e-05
4.85322e-05
4.85328e-05
5.13634e-05
5.13835e-05
5.13702e-05
4.85301e-05
4.85307e-05
4.85294e-05
4.85297e-05
5.13833e-05
5.13661e-05
4.85297e-05
4.85303e-05
4.85291e-05
4.85293e-05
4.85336e-05
4.85312e-05
4.8533e-05
5.13847e-05
5.13651e-05
4.85335e-05
4.85322e-05
4.85327e-05
5.13688e-05
5.1387e-05
5.1376e-05
4.85302e-05
4.85305e-05
4.85295e-05
4.85299e-05
5.13837e-05
5.13746e-05
4.85299e-05
4.85301e-05
4.85292e-05
4.85294e-05
4.85335e-05
4.85312e-05
4.85329e-05
5.13831e-05
5.13752e-05
4.85332e-05
4.85323e-05
4.85328e-05
5.13765e-05
5.13972e-05
5.13586e-05
4.85303e-05
4.85309e-05
4.85286e-05
4.85292e-05
5.13965e-05
5.13611e-05
4.85301e-05
4.85304e-05
4.85284e-05
4.85289e-05
4.8534e-05
4.85305e-05
4.85322e-05
5.13957e-05
5.13644e-05
4.85338e-05
4.85315e-05
4.8532e-05
5.13623e-05
5.13821e-05
5.13739e-05
4.85302e-05
4.85307e-05
4.85289e-05
4.85291e-05
5.13847e-05
5.13673e-05
4.853e-05
4.85303e-05
4.85287e-05
4.85289e-05
4.85338e-05
4.85305e-05
4.85322e-05
5.13878e-05
5.13736e-05
4.85336e-05
4.85315e-05
4.85317e-05
5.13684e-05
5.13915e-05
5.13651e-05
4.85304e-05
4.85308e-05
4.85284e-05
4.85289e-05
5.13882e-05
5.13636e-05
4.85302e-05
4.85305e-05
4.85281e-05
4.85284e-05
4.85338e-05
4.85301e-05
4.8532e-05
5.13945e-05
5.13655e-05
4.85333e-05
4.85312e-05
4.85318e-05
5.13771e-05
5.1391e-05
5.13615e-05
4.85312e-05
4.85316e-05
4.85278e-05
4.85283e-05
5.13907e-05
5.13604e-05
4.85309e-05
4.85313e-05
4.85275e-05
4.85278e-05
4.85345e-05
4.85294e-05
4.85313e-05
5.13914e-05
5.1364e-05
4.85341e-05
4.85304e-05
4.8531e-05
5.13662e-05
5.13809e-05
5.1374e-05
4.85314e-05
4.85319e-05
4.85279e-05
4.85284e-05
5.13803e-05
5.13738e-05
4.85311e-05
4.85313e-05
4.85276e-05
4.85279e-05
4.85351e-05
4.85295e-05
4.85309e-05
5.13828e-05
5.13736e-05
4.85348e-05
4.85305e-05
4.85305e-05
5.13635e-05
5.1393e-05
5.13673e-05
4.85325e-05
4.8533e-05
4.85277e-05
4.85282e-05
5.13921e-05
5.13681e-05
4.85322e-05
4.85326e-05
4.85275e-05
4.85277e-05
4.85357e-05
4.85295e-05
4.8531e-05
5.13958e-05
5.13625e-05
4.85353e-05
4.85303e-05
4.85308e-05
5.13734e-05
5.13923e-05
5.13587e-05
4.85342e-05
4.85348e-05
4.85252e-05
4.85258e-05
5.1393e-05
5.13586e-05
4.8534e-05
4.85343e-05
4.85249e-05
4.85254e-05
4.85373e-05
4.85269e-05
4.85289e-05
5.13872e-05
5.13601e-05
4.8537e-05
4.85279e-05
4.85284e-05
5.13706e-05
5.13779e-05
5.11396e-05
4.8515e-05
4.85156e-05
4.83212e-05
4.83222e-05
5.13776e-05
5.11414e-05
4.85148e-05
4.85149e-05
4.83227e-05
4.83199e-05
4.85182e-05
4.83254e-05
4.83236e-05
5.13783e-05
5.11409e-05
4.85178e-05
4.83246e-05
4.83253e-05
5.11427e-05
5.09278e-05
4.72635e-05
4.72644e-05
5.09293e-05
4.72652e-05
4.72622e-05
3.4548e-05
3.4547e-05
3.45493e-05
4.72661e-05
5.09281e-05
4.72679e-05
2.83717e-06
3.97248e-07
1.80907e-06
1.80617e-06
1.0032e-07
3.41574e-07
4.59957e-07
9.83579e-07
1.02347e-07
3.64931e-07
1.00264e-06
8.32782e-07
3.59757e-07
3.74261e-07
2.69214e-07
3.11899e-07
4.93626e-06
2.65328e-07
6.60917e-06
1.4123e-05
2.17596e-05
3.07651e-07
4.94392e-06
2.6881e-07
6.62412e-06
9.70281e-07
9.73392e-07
9.69974e-07
9.54503e-07
9.57634e-07
9.60639e-07
9.57303e-07
1.00575e-07
7.26e-07
4.44903e-07
3.46255e-07
1.002e-07
6.95803e-07
4.39878e-07
1.40672e-05
2.17019e-05
1.07091e-07
4.6272e-07
1.42924e-06
4.21407e-07
1.05815e-07
4.5611e-07
1.29463e-06
1.88841e-06
1.88226e-06
3.44849e-07
1.8713e-06
1.86366e-06
4.90166e-07
9.69339e-06
4.28075e-07
1.24086e-05
3.70002e-05
4.67959e-05
4.93126e-07
9.78094e-06
4.24601e-07
1.24971e-05
9.60648e-07
9.63464e-07
9.60306e-07
9.67542e-07
9.71012e-07
9.73088e-07