/*--------------------------------*- C++ -*----------------------------------*\
| =========                 |                                                 |
| \\      /  F ield         | OpenFOAM: The Open Source CFD Toolbox           |
|  \\    /   O peration     | Version:  v1906                                 |
|   \\  /    A nd           | Web:      www.OpenFOAM.com                      |
|    \\/     M anipulation  |                                                 |
\*---------------------------------------------------------------------------*/
FoamFile
{
    version     2.0;
    format      ascii;
    class       volScalarField;
    location    "237.5";
    object      nut;
}
// * * * * * * * * * * * * * * * * * * * * * * * * * * * * * * * * * * * * * //

dimensions      [0 2 -1 0 0 0 0];


internalField   nonuniform List<scalar> 
171728
(
1.1838e-05
2.34067e-06
3.47548e-06
2.2554e-06
1.16961e-05
2.3298e-06
3.279e-06
2.23615e-06
1.19682e-05
2.33723e-06
2.86969e-06
2.22613e-06
1.22502e-05
2.35155e-06
2.29049e-06
2.21118e-06
1.25373e-05
2.38353e-06
1.89927e-06
2.19219e-06
1.28109e-05
2.4066e-06
1.67344e-06
2.1906e-06
1.30835e-05
2.41549e-06
1.55664e-06
2.20569e-06
1.33649e-05
2.40829e-06
1.48836e-06
2.20309e-06
1.3621e-05
2.40157e-06
1.54783e-06
2.19559e-06
1.38916e-05
2.36136e-06
1.82866e-06
2.19047e-06
1.41548e-05
2.3159e-06
2.51567e-06
2.19555e-06
1.44352e-05
2.29165e-06
3.78249e-06
2.18461e-06
1.4709e-05
2.2741e-06
5.14119e-06
2.11284e-06
1.49826e-05
2.22951e-06
5.52787e-06
2.01497e-06
1.52335e-05
2.1751e-06
4.47761e-06
1.91586e-06
1.5521e-05
2.12169e-06
2.96588e-06
1.80499e-06
1.57183e-05
2.04041e-06
2.19554e-06
1.67686e-06
1.59842e-05
1.96519e-06
2.20219e-06
1.53725e-06
1.61298e-05
2.0162e-06
2.09808e-06
1.55544e-06
1.63592e-05
2.14194e-06
2.01853e-06
1.50124e-06
1.65044e-05
2.2602e-06
2.20875e-06
2.05699e-06
1.67723e-05
2.63557e-06
2.43954e-06
2.26015e-06
1.69292e-05
3.03536e-06
3.39647e-06
5.18149e-06
1.70463e-05
3.53225e-06
3.25125e-06
3.89692e-06
1.72108e-05
4.6456e-06
5.21232e-06
1.32901e-05
1.74406e-05
6.74928e-06
5.48395e-06
9.01437e-06
1.72029e-05
7.40904e-06
8.9573e-06
2.28679e-05
1.76256e-05
1.14168e-05
9.00759e-06
1.70625e-05
1.71348e-05
1.05669e-05
1.40531e-05
3.82922e-05
1.72745e-05
1.70672e-05
1.36845e-05
3.08623e-05
1.73693e-05
2.00582e-05
2.11095e-05
5.29167e-05
1.69157e-05
2.2205e-05
2.24318e-05
5.08036e-05
1.72941e-05
2.7823e-05
2.73834e-05
5.90236e-05
1.72666e-05
3.25667e-05
3.28549e-05
6.582e-05
1.79876e-05
3.71984e-05
3.773e-05
7.06592e-05
1.84016e-05
4.40206e-05
4.32079e-05
7.6163e-05
1.94173e-05
4.81045e-05
4.95392e-05
8.05112e-05
2.08116e-05
5.51961e-05
5.50182e-05
8.53312e-05
2.21388e-05
6.06535e-05
6.10114e-05
8.9005e-05
2.45581e-05
6.756e-05
6.69172e-05
9.33971e-05
2.63399e-05
7.34734e-05
7.37326e-05
9.7352e-05
2.96516e-05
8.04281e-05
7.98222e-05
0.000101337
3.30628e-05
8.52576e-05
8.59444e-05
0.00010541
3.72435e-05
9.37922e-05
9.17474e-05
0.0001091
4.13412e-05
9.85659e-05
9.86707e-05
0.00011397
4.57581e-05
0.000104992
0.000103863
0.000117059
5.24827e-05
0.000110925
0.000110179
0.000122029
5.65575e-05
0.000115496
0.000116161
0.00012514
6.6413e-05
0.000123487
0.000123658
0.000130478
6.73208e-05
0.000122482
0.000122552
0.000129172
7.11103e-05
0.000130402
0.000130505
0.000134373
9.42107e-05
0.000147991
0.000148039
0.000147303
0.000115572
0.000157435
0.000157469
0.000154454
0.000121292
0.000159813
0.000159831
0.000155201
0.000105082
0.000143953
0.000143975
0.000143456
8.28182e-05
0.00013327
0.000133304
0.000135772
7.0659e-05
0.000127568
0.000127593
0.000130358
7.79575e-05
0.000135192
0.000135203
0.000135077
0.000108342
0.00015384
0.000153847
0.000148077
0.000145529
0.000171942
0.000171944
0.000160613
0.000175001
0.000184139
0.000184138
0.000168935
0.000191939
0.000190366
0.000190364
0.000173111
0.000199813
0.000193102
0.000193097
0.000174895
0.000203199
0.00019427
0.000194262
0.000175658
0.000204296
0.00019459
0.000194584
0.000175921
0.000204387
0.000194547
0.000194543
0.000175897
0.000204506
0.000194618
0.000194611
0.000175911
0.000204548
0.000194641
0.000194634
0.000176014
0.000204499
0.000194585
0.00019458
0.000175859
0.000204521
0.000194624
0.000194617
0.000175967
0.000204508
0.000194599
0.000194592
0.000175912
0.000204515
0.000194618
0.000194613
0.000175945
0.000204509
0.000194601
0.000194594
0.000175917
0.000204511
0.000194614
0.000194607
0.000175954
0.000204509
0.000194606
0.000194601
0.000175893
0.000204508
0.000194609
0.000194602
0.000175983
0.000204508
0.000194609
0.000194603
0.00017588
0.000204509
0.000194609
0.000194603
0.000175928
0.000204509
0.00019461
0.000194604
0.000175975
0.000204509
0.000194611
0.000194606
0.000175916
0.000204509
0.000194613
0.000194607
0.000175886
0.000204508
0.000194607
0.0001946
0.000175919
0.000204509
0.000194613
0.000194605
0.000175986
0.00020451
0.000194611
0.000194604
0.000175924
0.000204511
0.00019461
0.000194603
0.000175887
0.000204511
0.00019461
0.000194602
0.000175909
0.000204511
0.000194613
0.000194605
0.000175982
0.00020451
0.000194609
0.000194603
0.000175892
0.00020451
0.00019461
0.000194602
0.000175905
0.00020451
0.000194613
0.000194606
0.000175985
0.00020451
0.000194612
0.000194603
0.000175939
0.000204511
0.000194615
0.000194608
0.000175886
0.000204513
0.000194623
0.000194614
0.000175946
0.000204501
0.000194525
0.000194515
0.000175977
0.000205876
0.000195214
0.000195206
0.000178619
2.35194e-06
2.50382e-06
2.54152e-06
2.21641e-06
2.55772e-06
2.52311e-06
1.22868e-05
1.23004e-05
1.23616e-05
1.23372e-05
2.46337e-06
2.45827e-06
2.25039e-06
3.00189e-06
2.45511e-06
2.27301e-06
2.32693e-06
2.29677e-06
2.36114e-06
2.37792e-06
2.35859e-06
2.39315e-06
2.19353e-06
2.19054e-06
2.37674e-06
2.4234e-06
2.37448e-06
2.41697e-06
2.13993e-06
2.32848e-06
2.19129e-06
2.22672e-06
2.27592e-06
2.3515e-06
3.33601e-06
2.36714e-06
2.24867e-06
2.27403e-06
2.24498e-06
2.36201e-06
2.40812e-06
2.37146e-06
2.43323e-06
2.16862e-06
2.17815e-06
2.38363e-06
2.41735e-06
2.39949e-06
2.42132e-06
2.20916e-06
2.33443e-06
2.24781e-06
2.25849e-06
2.30832e-06
2.37471e-06
3.00169e-06
2.38722e-06
2.23574e-06
2.22558e-06
2.20364e-06
2.3755e-06
2.43256e-06
2.39088e-06
2.42269e-06
2.15739e-06
2.16122e-06
2.39402e-06
2.42542e-06
2.38187e-06
2.43426e-06
2.26107e-06
2.34619e-06
2.30214e-06
2.28914e-06
2.28252e-06
2.38827e-06
2.4242e-06
2.38903e-06
2.22272e-06
2.18362e-06
2.17477e-06
2.39614e-06
2.42143e-06
2.41463e-06
2.42748e-06
2.14054e-06
2.1509e-06
2.38352e-06
2.43675e-06
2.40623e-06
2.44164e-06
2.31634e-06
2.37524e-06
2.3521e-06
2.26594e-06
2.23307e-06
2.38977e-06
1.98122e-06
2.39209e-06
2.20768e-06
2.15411e-06
2.16123e-06
2.42017e-06
2.42845e-06
2.43596e-06
2.429e-06
2.13236e-06
2.14842e-06
2.41808e-06
2.44349e-06
2.47166e-06
2.449e-06
2.36742e-06
2.40191e-06
2.40582e-06
2.21814e-06
2.17896e-06
2.39244e-06
1.7136e-06
2.39809e-06
2.20546e-06
2.14466e-06
2.18913e-06
2.43938e-06
2.43172e-06
2.44329e-06
2.45558e-06
2.13146e-06
2.15314e-06
2.4909e-06
2.45078e-06
2.54125e-06
2.45123e-06
2.41513e-06
2.41295e-06
2.42972e-06
2.15428e-06
2.09645e-06
2.40061e-06
1.58219e-06
2.40038e-06
2.22202e-06
2.17967e-06
2.23811e-06
2.44404e-06
2.46603e-06
2.44101e-06
2.47839e-06
2.13762e-06
2.16006e-06
2.56002e-06
2.45263e-06
2.62775e-06
2.44984e-06
2.43256e-06
2.41201e-06
2.4443e-06
2.06962e-06
2.00174e-06
2.39938e-06
1.50197e-06
2.40171e-06
2.22153e-06
2.22682e-06
2.25758e-06
2.43977e-06
2.47285e-06
2.43337e-06
2.45929e-06
2.14295e-06
2.14391e-06
2.64714e-06
2.44773e-06
2.63398e-06
2.43492e-06
2.44529e-06
2.40383e-06
2.46142e-06
1.98067e-06
1.95848e-06
2.40321e-06
1.51001e-06
2.40252e-06
2.21196e-06
2.23868e-06
2.21755e-06
2.43485e-06
2.45672e-06
2.43547e-06
2.45152e-06
2.12384e-06
2.1097e-06
2.60482e-06
2.43309e-06
2.47294e-06
2.42259e-06
2.46337e-06
2.37189e-06
2.47213e-06
1.95221e-06
2.03505e-06
2.40238e-06
1.72481e-06
2.4121e-06
2.20417e-06
2.18919e-06
2.11631e-06
2.43278e-06
2.4476e-06
2.40846e-06
2.41997e-06
2.08716e-06
2.04266e-06
2.42606e-06
2.41958e-06
2.30104e-06
2.40001e-06
2.48128e-06
2.32168e-06
2.51568e-06
2.03714e-06
2.13868e-06
2.40978e-06
2.29714e-06
2.40045e-06
2.20669e-06
2.09407e-06
1.98509e-06
2.39857e-06
2.41319e-06
2.36927e-06
2.38099e-06
2.02519e-06
1.9947e-06
2.26337e-06
2.39654e-06
2.20051e-06
2.38199e-06
2.53357e-06
2.29472e-06
2.57144e-06
2.1425e-06
2.33542e-06
2.39667e-06
3.41672e-06
2.38036e-06
2.19871e-06
1.96705e-06
1.91661e-06
2.36034e-06
2.37028e-06
2.33073e-06
2.33896e-06
1.98152e-06
1.95514e-06
2.18815e-06
2.37722e-06
2.1608e-06
2.35608e-06
2.57661e-06
2.28242e-06
2.57714e-06
2.33913e-06
2.51135e-06
2.37279e-06
4.86557e-06
2.33712e-06
2.13412e-06
1.90026e-06
1.86373e-06
2.32263e-06
2.32738e-06
2.28712e-06
2.28333e-06
1.93725e-06
1.88642e-06
2.16054e-06
2.34404e-06
2.13555e-06
2.30272e-06
2.57478e-06
2.23661e-06
2.55845e-06
2.49531e-06
2.48052e-06
2.32274e-06
5.53436e-06
2.27319e-06
2.03986e-06
1.84321e-06
1.77335e-06
2.27343e-06
2.2667e-06
2.21752e-06
2.20774e-06
1.86422e-06
1.78871e-06
2.11957e-06
2.27817e-06
2.06107e-06
2.21897e-06
2.55743e-06
2.18534e-06
2.57699e-06
2.43392e-06
2.09564e-06
2.25624e-06
5.01164e-06
2.21288e-06
1.94689e-06
1.74448e-06
1.64837e-06
2.19973e-06
2.18883e-06
2.14603e-06
2.12964e-06
1.75822e-06
1.68893e-06
2.03904e-06
2.19799e-06
1.95214e-06
2.1389e-06
2.58826e-06
2.13194e-06
2.62076e-06
2.02672e-06
1.79136e-06
2.19704e-06
3.27597e-06
2.15813e-06
1.84405e-06
1.62253e-06
1.50177e-06
2.1411e-06
2.11753e-06
2.056e-06
2.06918e-06
1.65164e-06
1.59969e-06
1.93662e-06
2.12483e-06
1.86003e-06
2.05395e-06
2.61851e-06
2.06314e-06
2.62126e-06
1.75942e-06
1.56752e-06
2.14238e-06
2.30851e-06
2.10212e-06
1.71976e-06
1.45012e-06
1.49266e-06
2.04534e-06
2.07018e-06
2.03423e-06
2.02491e-06
1.5567e-06
1.5223e-06
1.84699e-06
2.02368e-06
1.82268e-06
2.01794e-06
2.59492e-06
2.00822e-06
2.49379e-06
1.50698e-06
1.55507e-06
2.07619e-06
2.17886e-06
2.04319e-06
1.56555e-06
1.4535e-06
1.40416e-06
2.02383e-06
1.98018e-06
1.98267e-06
2.1392e-06
1.47867e-06
1.62744e-06
1.81266e-06
2.00149e-06
1.81919e-06
1.98604e-06
2.43909e-06
2.04917e-06
2.33051e-06
1.55401e-06
1.472e-06
2.01823e-06
2.15442e-06
2.07101e-06
1.55693e-06
1.37064e-06
1.6944e-06
1.9255e-06
2.09951e-06
2.1507e-06
1.8075e-06
1.61027e-06
1.18331e-06
1.75613e-06
1.9724e-06
1.90773e-06
2.01955e-06
2.25349e-06
1.82288e-06
2.02226e-06
1.45819e-06
1.57042e-06
2.04063e-06
2.05309e-06
1.93564e-06
1.32234e-06
1.84301e-06
1.43635e-06
2.17191e-06
2.12683e-06
1.99473e-06
2.56698e-06
1.58866e-06
3.16072e-06
1.95633e-06
2.00796e-06
1.85418e-06
2.17034e-06
2.14758e-06
2.43156e-06
2.12758e-06
1.63594e-06
1.90546e-06
2.06407e-06
2.15181e-06
2.23597e-06
2.13776e-06
1.50664e-06
3.03158e-06
2.08538e-06
2.38261e-06
2.65403e-06
2.31233e-06
2.57149e-06
2.31892e-06
1.91628e-06
2.22539e-06
2.45686e-06
2.4369e-06
2.06173e-06
2.3839e-06
2.21451e-06
2.21531e-06
2.36486e-06
2.19051e-06
2.44472e-06
2.31207e-06
1.9435e-06
3.1935e-06
2.55362e-06
2.77813e-06
2.62109e-06
2.50006e-06
2.59742e-06
3.22428e-06
3.04778e-06
2.59364e-06
2.42975e-06
2.38179e-06
3.05771e-06
2.24183e-06
2.6042e-06
2.99504e-06
2.62683e-06
3.76067e-06
2.38915e-06
2.97474e-06
3.12471e-06
4.38871e-06
2.55144e-06
7.13981e-06
2.81045e-06
3.0478e-06
3.87403e-06
3.66944e-06
3.06388e-06
6.83644e-06
2.60166e-06
3.42197e-06
3.59932e-06
3.31369e-06
3.43607e-06
3.5383e-06
3.37783e-06
4.76449e-06
4.88401e-06
3.46995e-06
3.3566e-06
3.27138e-06
4.39633e-06
6.93649e-06
9.04296e-06
3.71527e-06
3.62725e-06
4.81011e-06
4.59797e-06
6.5501e-06
9.26493e-06
3.53405e-06
3.28844e-06
4.80199e-06
4.73645e-06
3.13404e-06
4.69155e-06
5.23602e-06
4.41385e-06
1.10291e-05
3.09775e-06
4.80192e-06
5.4307e-06
1.26602e-05
1.06095e-05
9.47256e-06
5.18908e-06
4.55903e-06
5.12124e-06
6.46232e-06
1.02172e-05
1.21006e-05
5.01945e-06
5.14474e-06
4.80986e-06
5.72116e-06
5.55131e-06
6.27768e-06
4.91359e-06
1.17246e-05
1.2206e-05
5.60071e-06
5.53854e-06
4.90729e-06
8.91067e-06
1.02191e-05
2.09201e-05
6.19143e-06
6.99565e-06
8.25304e-06
6.65406e-06
1.50059e-05
1.56166e-05
5.87779e-06
5.64654e-06
8.37802e-06
8.3098e-06
5.27155e-06
6.64429e-06
8.68805e-06
1.29506e-05
1.73135e-05
5.56492e-06
8.36102e-06
8.73444e-06
2.29014e-05
2.04061e-05
1.8156e-05
7.89013e-06
7.07122e-06
8.7948e-06
1.10986e-05
1.4846e-05
3.0219e-05
8.05102e-06
8.90332e-06
8.39209e-06
8.31053e-06
8.71138e-06
1.0839e-05
7.72815e-06
2.05584e-05
2.08388e-05
8.62376e-06
8.31738e-06
7.77487e-06
1.62069e-05
2.5173e-05
3.69423e-05
1.14592e-05
1.18077e-05
1.32838e-05
1.10304e-05
3.1558e-05
2.71469e-05
1.10168e-05
9.08984e-06
1.30782e-05
1.41156e-05
9.22691e-06
1.07626e-05
1.41715e-05
1.97254e-05
3.80475e-05
9.57621e-06
1.41374e-05
1.40596e-05
3.85816e-05
3.50592e-05
3.25167e-05
1.26346e-05
1.06247e-05
1.38495e-05
1.54855e-05
2.58096e-05
3.72663e-05
1.25196e-05
1.40365e-05
1.40365e-05
1.26064e-05
1.38419e-05
1.54378e-05
1.24684e-05
3.84191e-05
3.00107e-05
1.37239e-05
1.24825e-05
1.26412e-05
2.831e-05
3.94615e-05
5.05577e-05
1.63443e-05
1.71611e-05
1.95769e-05
1.95746e-05
4.22231e-05
4.98928e-05
1.59932e-05
1.39099e-05
1.93704e-05
2.0496e-05
1.45694e-05
1.96062e-05
1.97128e-05
3.04914e-05
5.25584e-05
1.4906e-05
2.0614e-05
1.98871e-05
5.25733e-05
5.02987e-05
4.98859e-05
1.99756e-05
2.00527e-05
2.16527e-05
2.13176e-05
4.96852e-05
4.94629e-05
2.0116e-05
2.10671e-05
2.15254e-05
2.17937e-05
2.04584e-05
2.13089e-05
2.18826e-05
5.38517e-05
5.12497e-05
2.04878e-05
2.17681e-05
2.19585e-05
5.03507e-05
5.12863e-05
5.73723e-05
2.24388e-05
2.22468e-05
2.61377e-05
2.64042e-05
5.08517e-05
5.77692e-05
2.20914e-05
2.24406e-05
2.62869e-05
2.61622e-05
2.24145e-05
2.65189e-05
2.59663e-05
5.1137e-05
5.71453e-05
2.25684e-05
2.5824e-05
2.59354e-05
5.74516e-05
5.91743e-05
6.46179e-05
2.77667e-05
2.75371e-05
3.14368e-05
3.14457e-05
5.94656e-05
6.4622e-05
2.80777e-05
2.7705e-05
3.08798e-05
3.16348e-05
2.73935e-05
3.12925e-05
3.12006e-05
5.9171e-05
6.50357e-05
2.74544e-05
3.18243e-05
3.14916e-05
6.45753e-05
6.54894e-05
6.96532e-05
3.23147e-05
3.30592e-05
3.61478e-05
3.58892e-05
6.58105e-05
6.94983e-05
3.16159e-05
3.26949e-05
3.66883e-05
3.65468e-05
3.25256e-05
3.58719e-05
3.61697e-05
6.60488e-05
6.97562e-05
3.26165e-05
3.61915e-05
3.61213e-05
6.96102e-05
7.11432e-05
7.50056e-05
3.78221e-05
3.69372e-05
4.22353e-05
4.25988e-05
7.05872e-05
7.54367e-05
3.85313e-05
3.81196e-05
4.1545e-05
4.18064e-05
3.73365e-05
4.26353e-05
4.17858e-05
7.09709e-05
7.50014e-05
3.75109e-05
4.18936e-05
4.20586e-05
7.49724e-05
7.57855e-05
7.93163e-05
4.3159e-05
4.38696e-05
4.68576e-05
4.64652e-05
7.65879e-05
7.88952e-05
4.23903e-05
4.29099e-05
4.71455e-05
4.82159e-05
4.32602e-05
4.67499e-05
4.73003e-05
7.60685e-05
7.99284e-05
4.3355e-05
4.81933e-05
4.72529e-05
7.9492e-05
8.06305e-05
8.45238e-05
4.90381e-05
4.83844e-05
5.42254e-05
5.42614e-05
7.9847e-05
8.45624e-05
4.92075e-05
4.99233e-05
5.40085e-05
5.31061e-05
4.88577e-05
5.35111e-05
5.35674e-05
8.09816e-05
8.38892e-05
4.8923e-05
5.3049e-05
5.38851e-05
8.43883e-05
8.52481e-05
8.79837e-05
5.49532e-05
5.52839e-05
5.90826e-05
5.88547e-05
8.54796e-05
8.80998e-05
5.50871e-05
5.46182e-05
5.88519e-05
6.03497e-05
5.51256e-05
5.92669e-05
5.95811e-05
8.48942e-05
8.86517e-05
5.53738e-05
6.03665e-05
5.94765e-05
8.81283e-05
8.91753e-05
9.28349e-05
6.1313e-05
6.08038e-05
6.62195e-05
6.6583e-05
8.91739e-05
9.28184e-05
6.05868e-05
6.15525e-05
6.62319e-05
6.50236e-05
6.07598e-05
6.59293e-05
6.54844e-05
8.93564e-05
9.1787e-05
6.06802e-05
6.4511e-05
6.5472e-05
9.23751e-05
9.35346e-05
9.63534e-05
6.71641e-05
6.77363e-05
7.15704e-05
7.08512e-05
9.35134e-05
9.58989e-05
6.76706e-05
6.69804e-05
7.11851e-05
7.25372e-05
6.75358e-05
7.16919e-05
7.21591e-05
9.2971e-05
9.70529e-05
6.73849e-05
7.28041e-05
7.18475e-05
9.66032e-05
9.73987e-05
0.000100626
7.36526e-05
7.28464e-05
7.83386e-05
7.97808e-05
9.69803e-05
0.000101526
7.27522e-05
7.37407e-05
7.83657e-05
7.80786e-05
7.33534e-05
7.91501e-05
7.79385e-05
9.76742e-05
0.00010021
7.32101e-05
7.76369e-05
7.81601e-05
0.000100392
0.000101297
0.000104398
7.94349e-05
8.1113e-05
8.40343e-05
8.31176e-05
0.000102193
0.000103745
8.01488e-05
8.0126e-05
8.48927e-05
8.48561e-05
7.95597e-05
8.34535e-05
8.41539e-05
0.000101322
0.00010495
7.97756e-05
8.49344e-05
8.4217e-05
0.0001046
0.000105424
0.000108905
8.61215e-05
8.46248e-05
9.12306e-05
9.10212e-05
0.000104574
0.000109445
8.6479e-05
8.5923e-05
9.06555e-05
9.00136e-05
8.59962e-05
9.19912e-05
9.05893e-05
0.000105534
0.000108019
8.5952e-05
8.98212e-05
9.02742e-05
0.000108411
0.000109536
0.000112132
9.25176e-05
9.27231e-05
9.63599e-05
9.65114e-05
0.000110275
0.000112143
9.1994e-05
9.19126e-05
9.64839e-05
9.71932e-05
9.18352e-05
9.73361e-05
9.70751e-05
0.000109008
0.000113036
9.15643e-05
9.71923e-05
9.7103e-05
0.000112918
0.000112932
0.000116551
9.77485e-05
9.81018e-05
0.000101866
0.000103398
0.000112822
0.000117105
9.81195e-05
9.8678e-05
0.000103014
0.000102746
9.89953e-05
0.000103196
0.000102558
0.000113763
0.000116372
9.90407e-05
0.000102464
0.000102368
0.000116587
0.000117456
0.000121168
0.000103485
0.000104995
0.000108975
0.000109213
0.000118061
0.000120884
0.000104807
0.00010425
0.000110242
0.000109173
0.000103771
0.000110163
0.000109667
0.000117115
0.000120599
0.000103515
0.000108962
0.000109473
0.000121081
0.000121839
0.000124686
0.000110225
0.000110041
0.000114303
0.000113798
0.000121362
0.000124003
0.00011121
0.000110251
0.000114416
0.000114186
0.000111009
0.000113402
0.000114028
0.000121337
0.000124522
0.000110886
0.000113988
0.000113868
0.000124344
0.00012576
0.000130208
0.000116592
0.000116237
0.000123123
0.00012304
0.000125129
0.000129944
0.000116665
0.00011649
0.000123322
0.000122809
0.000116153
0.00012231
0.000123313
0.000125589
0.000129881
0.000115904
0.00012259
0.000123059
0.000130022
0.00013052
0.000129153
0.000124146
0.000124004
0.000123484
0.000123189
0.000130299
0.000129147
0.00012422
0.000123659
0.000123172
0.000122674
0.000124504
0.00012295
0.000123765
0.000130192
0.000128946
0.000124404
0.000123032
0.000123956
0.000129509
0.000128841
0.000132876
0.000123036
0.00012272
0.000127337
0.00012706
0.000128877
0.000132886
0.000122551
0.000122176
0.000126683
0.000126786
0.000123079
0.000126694
0.000126357
0.000128675
0.000132801
0.000123322
0.000126784
0.000126541
0.000132525
0.000134809
0.000145699
0.000130986
0.000130744
0.00014422
0.000144126
0.000134805
0.00014572
0.000130413
0.000130613
0.00014396
0.000144278
0.000129952
0.000144028
0.000143559
0.00013476
0.00014581
0.000130092
0.000144096
0.000143593
0.000145354
0.000147567
0.000153687
0.000148065
0.000148002
0.000155903
0.000155864
0.000147602
0.000153762
0.000147886
0.000148186
0.000155801
0.000156031
0.000147615
0.000155995
0.000155892
0.000147694
0.000153832
0.000147627
0.000156028
0.000155899
0.000153756
0.000154353
0.000155637
0.000157325
0.000157291
0.000159935
0.000159927
0.000154429
0.000155714
0.000157222
0.00015744
0.000159834
0.000160044
0.000157385
0.000160092
0.000160104
0.000154492
0.000155712
0.000157399
0.000160114
0.000160123
0.000155881
0.000154947
0.000144222
0.000159678
0.000159658
0.000147661
0.000147567
0.000155014
0.000144192
0.00015957
0.0001597
0.000147534
0.000147496
0.000159912
0.000147641
0.000147802
0.000155003
0.000144167
0.000159951
0.000147659
0.000147876
0.000144349
0.000143345
0.00013629
0.000144005
0.000143899
0.000135592
0.000135483
0.00014331
0.000136234
0.000143877
0.000143834
0.000135477
0.000135442
0.000144082
0.000135485
0.000135552
0.000143287
0.000136236
0.000144151
0.000135519
0.000135597
0.000136292
0.000135776
0.000130936
0.000133374
0.000133276
0.000128598
0.000128533
0.000135722
0.000130909
0.000133272
0.000133246
0.000128529
0.000128531
0.000133318
0.000128517
0.000128533
0.000135726
0.000130925
0.000133353
0.000128545
0.000128543
0.000130911
0.000130383
0.000133395
0.000127641
0.000127583
0.000131432
0.000131428
0.000130359
0.000133393
0.000127577
0.000127586
0.000131418
0.000131455
0.000127578
0.000131428
0.000131421
0.000130375
0.000133409
0.000127584
0.000131438
0.000131412
0.000133393
0.000135076
0.000145797
0.0001352
0.000135193
0.000148885
0.000148882
0.000135074
0.000145799
0.000135184
0.000135213
0.000148878
0.00014889
0.000135195
0.000148888
0.000148891
0.000135087
0.000145804
0.000135191
0.000148896
0.000148894
0.000145803
0.000148072
0.000158819
0.000153837
0.000153835
0.000167854
0.000167855
0.000148073
0.000158822
0.000153835
0.00015384
0.000167861
0.000167851
0.000153845
0.000167867
0.000167862
0.000148077
0.000158818
0.000153848
0.00016787
0.000167869
0.000158823
0.00016061
0.000167933
0.00017193
0.00017193
0.000181699
0.000181698
0.000160614
0.000167937
0.000171939
0.000171925
0.00018171
0.000181689
0.000171937
0.000181717
0.000181705
0.000160609
0.000167929
0.000171946
0.000181716
0.000181717
0.000167935
0.000168934
0.000172689
0.000184121
0.000184119
0.00018922
0.000189217
0.000168937
0.000172693
0.000184133
0.000184111
0.000189233
0.000189209
0.000184127
0.000189243
0.000189229
0.000168929
0.000172686
0.00018414
0.000189241
0.000189243
0.000172693
0.000173107
0.000174753
0.000190342
0.000190338
0.000192585
0.000192581
0.000173111
0.000174759
0.000190356
0.000190331
0.0001926
0.000192574
0.000190351
0.000192613
0.000192595
0.000173104
0.000174751
0.000190366
0.000192609
0.000192611
0.000174758
0.00017489
0.00017567
0.000193073
0.000193069
0.000194042
0.000194039
0.000174896
0.000175677
0.000193088
0.000193062
0.000194058
0.000194031
0.000193083
0.000194073
0.000194051
0.000174888
0.000175667
0.000193099
0.000194067
0.000194068
0.000175674
0.000175653
0.000176007
0.000194238
0.000194236
0.000194535
0.000194532
0.000175661
0.000176015
0.000194254
0.000194227
0.000194551
0.000194523
0.000194247
0.000194566
0.000194544
0.000175651
0.000176004
0.000194264
0.000194559
0.000194561
0.000176011
0.000175916
0.000176023
0.00019456
0.000194557
0.000194536
0.000194532
0.000175924
0.000176028
0.000194576
0.000194547
0.000194552
0.000194523
0.000194569
0.000194565
0.000194546
0.000175913
0.00017602
0.000194587
0.000194561
0.000194563
0.000176029
0.000175891
0.000175978
0.000194517
0.000194514
0.000194541
0.000194539
0.000175896
0.000175988
0.000194534
0.000194506
0.000194557
0.000194529
0.000194528
0.000194573
0.000194551
0.000175888
0.000175977
0.000194545
0.000194567
0.000194568
0.000175983
0.000175905
0.000176123
0.000194586
0.000194584
0.000194625
0.000194622
0.000175914
0.000176131
0.000194602
0.000194574
0.000194641
0.000194612
0.000194595
0.000194656
0.000194633
0.000175903
0.000176119
0.000194612
0.000194648
0.00019465
0.000176127
0.000176011
0.000175973
0.000194611
0.000194607
0.000194557
0.000194554
0.000176018
0.000175979
0.000194627
0.000194597
0.000194574
0.000194545
0.000194619
0.000194588
0.000194567
0.000176007
0.000175969
0.000194635
0.000194582
0.000194584
0.000175977
0.000175855
0.000176046
0.000194555
0.000194552
0.000194588
0.000194586
0.00017586
0.000176056
0.000194571
0.000194543
0.000194604
0.000194576
0.000194564
0.000194619
0.000194598
0.000175851
0.000176047
0.000194582
0.000194614
0.000194615
0.000176055
0.000175958
0.00017604
0.000194593
0.00019459
0.000194579
0.000194575
0.000175968
0.000176044
0.000194609
0.000194581
0.000194595
0.000194566
0.000194603
0.000194609
0.000194587
0.000175959
0.000176033
0.000194619
0.000194601
0.000194602
0.00017604
0.000175913
0.000176017
0.000194568
0.000194565
0.000194574
0.000194573
0.000175916
0.00017603
0.000194584
0.000194556
0.000194591
0.000194564
0.000194577
0.000194606
0.000194585
0.000175905
0.00017602
0.000194594
0.000194602
0.000194604
0.000176028
0.000175936
0.000176047
0.000194587
0.000194585
0.000194576
0.000194573
0.000175947
0.000176048
0.000194603
0.000194575
0.000194592
0.000194563
0.000194596
0.000194607
0.000194585
0.000175937
0.000176038
0.000194615
0.0001946
0.000194602
0.000176047
0.000175917
0.000176028
0.00019457
0.000194567
0.00019458
0.000194579
0.000175918
0.000176047
0.000194585
0.000194557
0.000194596
0.000194569
0.00019458
0.000194613
0.00019459
0.000175908
0.000176034
0.000194596
0.000194606
0.000194607
0.00017604
0.000175943
0.000176022
0.000194582
0.000194581
0.000194574
0.000194572
0.00017596
0.000176018
0.0001946
0.000194572
0.00019459
0.000194562
0.000194593
0.000194606
0.000194584
0.000175947
0.000176011
0.000194609
0.0001946
0.000194603
0.000176021
0.000175892
0.000176066
0.000194574
0.000194573
0.000194577
0.000194577
0.000175889
0.000176086
0.000194589
0.000194561
0.000194593
0.000194566
0.000194584
0.00019461
0.000194588
0.000175882
0.000176072
0.000194602
0.000194602
0.000194604
0.000176078
0.000175974
0.000175978
0.000194577
0.000194576
0.000194576
0.000194576
0.000175989
0.000175984
0.000194593
0.000194566
0.000194591
0.000194564
0.000194588
0.000194608
0.000194586
0.000175977
0.000175974
0.000194603
0.000194602
0.000194604
0.000175982
0.000175868
0.000176072
0.000194576
0.000194578
0.000194577
0.000194574
0.000175887
0.00017606
0.000194591
0.000194564
0.000194592
0.000194565
0.000194587
0.000194609
0.000194587
0.000175876
0.000176048
0.000194604
0.000194602
0.000194604
0.000176062
0.000175939
0.000176052
0.000194577
0.000194574
0.000194578
0.000194579
0.000175926
0.000176075
0.000194592
0.000194565
0.000194592
0.000194566
0.000194587
0.00019461
0.000194588
0.000175914
0.000176067
0.000194604
0.000194605
0.000194606
0.00017607
0.000175963
0.000175984
0.000194578
0.000194577
0.000194578
0.000194576
0.00017598
0.000175998
0.000194592
0.000194566
0.000194593
0.000194567
0.000194588
0.000194609
0.000194587
0.000175971
0.000175995
0.000194605
0.000194605
0.000194605
0.000175998
0.000175892
0.00017602
0.00019458
0.000194579
0.000194575
0.000194575
0.000175915
0.000176018
0.000194593
0.000194568
0.000194591
0.000194565
0.000194588
0.00019461
0.000194588
0.000175917
0.000175996
0.000194606
0.000194603
0.000194604
0.000176009
0.00017589
0.000176082
0.000194576
0.000194577
0.000194577
0.000194576
0.000175892
0.000176067
0.000194592
0.000194567
0.000194592
0.000194565
0.000194592
0.000194609
0.000194584
0.000175875
0.000176046
0.000194608
0.000194603
0.000194602
0.000176055
0.000175964
0.000176037
0.000194576
0.000194575
0.000194576
0.000194577
0.000175931
0.000176087
0.000194591
0.000194564
0.000194592
0.000194566
0.000194582
0.000194613
0.000194595
0.000175911
0.000176077
0.0001946
0.000194606
0.000194612
0.000176083
0.000175953
0.000175982
0.000194577
0.000194576
0.000194576
0.000194576
0.000175979
0.000176042
0.000194593
0.000194565
0.000194591
0.000194565
0.000194596
0.000194608
0.000194586
0.000175968
0.000176031
0.000194612
0.000194601
0.000194603
0.000176003
0.000175887
0.000176027
0.000194578
0.000194577
0.000194578
0.000194574
0.000175962
0.000175988
0.000194593
0.000194566
0.000194593
0.000194564
0.000194589
0.000194607
0.000194587
0.000175949
0.000175982
0.000194605
0.0001946
0.000194603
0.000175992
0.000175898
0.000176056
0.000194578
0.000194577
0.000194576
0.000194574
0.000175894
0.000176038
0.000194593
0.000194567
0.000194592
0.000194564
0.000194589
0.000194609
0.000194588
0.000175889
0.000176022
0.000194605
0.000194601
0.000194604
0.00017604
0.000175922
0.000176087
0.000194578
0.000194575
0.000194579
0.000194576
0.000175907
0.000176082
0.000194594
0.000194565
0.000194594
0.000194565
0.000194588
0.00019461
0.000194588
0.000175893
0.000176076
0.000194604
0.000194603
0.000194605
0.000176075
0.000175986
0.000175972
0.00019458
0.000194578
0.000194573
0.000194572
0.000175983
0.000175999
0.000194596
0.000194567
0.000194589
0.000194562
0.000194591
0.000194606
0.000194584
0.000175971
0.000176003
0.000194608
0.000194598
0.0001946
0.000175983
0.000175874
0.000176087
0.000194577
0.000194575
0.000194577
0.000194573
0.000175905
0.000176046
0.000194593
0.000194566
0.000194593
0.000194564
0.000194588
0.000194607
0.000194586
0.00017591
0.000176074
0.000194605
0.0001946
0.000194601
0.000176038
0.000175957
0.000176014
0.000194578
0.000194576
0.000194574
0.000194572
0.000175938
0.000176008
0.000194595
0.000194566
0.00019459
0.000194561
0.000194588
0.000194606
0.000194586
0.000175968
0.000176007
0.000194603
0.000194598
0.000194602
0.000176089
0.000175938
0.000176002
0.000194581
0.000194579
0.000194572
0.00019457
0.000175941
0.000175998
0.000194597
0.000194569
0.000194588
0.00019456
0.000194591
0.000194603
0.000194583
0.000175931
0.000176018
0.000194607
0.000194596
0.000194598
0.00017601
0.00017588
0.00017608
0.00019458
0.000194578
0.000194575
0.000194573
0.000175878
0.000176088
0.000194596
0.000194567
0.00019459
0.000194562
0.000194592
0.000194606
0.000194582
0.000175893
0.000176067
0.000194608
0.000194598
0.000194598
0.000176003
0.000175963
0.000176026
0.000194585
0.000194582
0.000194575
0.000194574
0.000175964
0.00017604
0.0001946
0.000194572
0.000194591
0.000194562
0.000194593
0.000194608
0.000194586
0.000175971
0.00017599
0.000194608
0.000194598
0.000194602
0.00017607
0.000175946
0.000176005
0.00019459
0.000194589
0.000194627
0.000194626
0.000175958
0.000176012
0.000194606
0.000194578
0.000194643
0.000194617
0.000194599
0.000194659
0.00019464
0.000175907
0.00017601
0.000194615
0.000194652
0.000194656
0.000176072
0.000175896
0.000177081
0.000194491
0.00019449
0.000196933
0.000196937
0.000175901
0.000177095
0.000194508
0.000194478
0.000196951
0.000196926
0.0001945
0.000196963
0.000196942
0.000175896
0.000177086
0.000194518
0.000196956
0.000196962
0.000177092
0.000178594
0.000195188
0.00019519
0.000178605
0.000195203
0.000195181
0.000205882
0.000205881
0.00020589
0.000195197
0.000178593
0.000195214
3.69112e-05
3.93562e-06
2.34257e-05
2.335e-05
5.9164e-07
2.46998e-06
1.70006e-06
1.27386e-05
6.18426e-07
3.10121e-06
1.27033e-05
2.93407e-06
2.27661e-06
1.81257e-06
1.73991e-06
1.07851e-06
1.34625e-05
1.10487e-06
1.52383e-05
1.0989e-05
1.32183e-05
1.16026e-06
1.34732e-05
1.08359e-06
1.52539e-05
1.18559e-05
1.19377e-05
1.18772e-05
1.16371e-05
1.16616e-05
1.17497e-05
1.16727e-05
6.08134e-07
5.47866e-07
5.03715e-06
2.33017e-06
5.93708e-07
6.73006e-07
4.9937e-06
1.09706e-05
1.32007e-05
6.70068e-07
4.6987e-06
1.42666e-06
3.41388e-06
6.51804e-07
4.62411e-06
1.48739e-06
1.49519e-06
1.48958e-06
2.26244e-06
1.70607e-06
1.69389e-06
1.2831e-06
1.84357e-05
1.29357e-06
2.08575e-05
1.72257e-05
1.93701e-05
1.36263e-06
1.8512e-05
1.25701e-06
2.09323e-05
1.17234e-05
1.1809e-05
1.17328e-05
1.18993e-05