/*--------------------------------*- C++ -*----------------------------------*\
| =========                 |                                                 |
| \\      /  F ield         | OpenFOAM: The Open Source CFD Toolbox           |
|  \\    /   O peration     | Version:  v1906                                 |
|   \\  /    A nd           | Web:      www.OpenFOAM.com                      |
|    \\/     M anipulation  |                                                 |
\*---------------------------------------------------------------------------*/
FoamFile
{
    version     2.0;
    format      ascii;
    class       volScalarField;
    location    "237.5";
    object      p;
}
// * * * * * * * * * * * * * * * * * * * * * * * * * * * * * * * * * * * * * //

dimensions      [0 2 -2 0 0 0 0];


internalField   nonuniform List<scalar> 
171728
(
0.00353335
0.00353231
0.00353236
0.00353315
0.00349773
0.00349618
0.0034964
0.00349912
0.00345988
0.00345785
0.00345797
0.00346019
0.00341561
0.00341396
0.00341397
0.0034162
0.00336719
0.00336569
0.00336564
0.00336807
0.00331859
0.00331715
0.0033171
0.00331956
0.00327064
0.00326934
0.00326937
0.00327174
0.0032233
0.00322209
0.0032221
0.00322455
0.00317697
0.00317589
0.00317595
0.00317835
0.0031317
0.00313074
0.00313074
0.00313318
0.00308727
0.00308641
0.00308632
0.00308885
0.00304361
0.00304285
0.00304271
0.00304526
0.00300049
0.00299979
0.00299966
0.00300231
0.00295778
0.00295722
0.00295712
0.00295964
0.00291537
0.0029149
0.00291487
0.00291727
0.00287331
0.00287293
0.00287272
0.0028752
0.00283163
0.00283123
0.00283099
0.00283345
0.00279021
0.00278975
0.00279006
0.00279216
0.00274914
0.00274858
0.00274881
0.00275097
0.00270854
0.0027088
0.00270824
0.00271047
0.00266807
0.0026675
0.00266794
0.00266979
0.00262805
0.00262799
0.00262782
0.00262974
0.0025884
0.00258826
0.00258832
0.00259013
0.00254871
0.00254844
0.00254863
0.0025502
0.00250957
0.00250939
0.00250938
0.00251133
0.00247057
0.00247057
0.00247044
0.00247296
0.00243182
0.00243191
0.00243177
0.0024335
0.00239327
0.00239322
0.00239346
0.00239628
0.0023549
0.00235505
0.00235476
0.00235669
0.00231687
0.00231697
0.0023171
0.0023198
0.00227878
0.00227889
0.00227884
0.0022809
0.00224099
0.00224121
0.00224117
0.00224324
0.00220344
0.00220365
0.00220369
0.00220574
0.00216596
0.00216621
0.00216619
0.00216824
0.00212868
0.00212894
0.00212892
0.0021309
0.00209151
0.00209174
0.00209176
0.00209375
0.00205458
0.00205479
0.00205477
0.00205675
0.00201769
0.00201787
0.0020179
0.00201986
0.00198107
0.0019812
0.00198116
0.00198319
0.00194452
0.00194466
0.00194469
0.00194665
0.00190824
0.00190826
0.00190825
0.00191028
0.00187203
0.00187199
0.00187207
0.00187408
0.00183607
0.00183609
0.00183601
0.00183804
0.00180028
0.00180016
0.00180023
0.00180227
0.00176475
0.00176465
0.0017646
0.0017666
0.00172949
0.00172931
0.00172932
0.00173131
0.00169444
0.00169429
0.00169429
0.00169627
0.00165994
0.00165966
0.00165963
0.0016616
0.00162522
0.00162498
0.00162499
0.00162696
0.00159129
0.00159125
0.00159124
0.00159318
0.0015586
0.00155804
0.00155803
0.00155985
0.00152475
0.00152394
0.00152394
0.00152579
0.00148851
0.00148814
0.00148814
0.00149022
0.00145053
0.00145054
0.00145054
0.0014528
0.00141265
0.00141335
0.00141335
0.0014157
0.00137662
0.00137709
0.00137709
0.0013793
0.00134352
0.00134357
0.00134357
0.00134549
0.00131328
0.00131252
0.00131252
0.00131408
0.00128328
0.00128232
0.00128232
0.00128371
0.00125226
0.00125151
0.00125151
0.00125301
0.00121978
0.00121936
0.00121936
0.00122107
0.00118589
0.00118568
0.00118568
0.00118757
0.00115092
0.00115082
0.00115082
0.00115281
0.00111532
0.00111527
0.00111527
0.00111731
0.00107941
0.00107938
0.00107938
0.00108144
0.00104338
0.00104336
0.00104336
0.00104543
0.00100733
0.00100731
0.00100731
0.00100938
0.000971258
0.000971229
0.000971229
0.000973301
0.000935187
0.00093516
0.00093516
0.000937231
0.000899115
0.000899086
0.000899086
0.000901158
0.000863042
0.000863013
0.000863014
0.000865085
0.000826971
0.000826945
0.000826945
0.000829016
0.0007909
0.00079087
0.000790871
0.000792942
0.00075483
0.000754803
0.000754803
0.000756875
0.000718761
0.000718734
0.000718734
0.000720804
0.000682692
0.000682664
0.000682664
0.000684735
0.000646623
0.000646595
0.000646595
0.000648668
0.000610554
0.000610526
0.000610526
0.000612597
0.000574485
0.000574456
0.000574456
0.000576527
0.000538416
0.000538388
0.000538388
0.00054046
0.000502346
0.00050232
0.00050232
0.000504391
0.000466277
0.000466248
0.000466248
0.000468319
0.000430209
0.00043018
0.00043018
0.000432251
0.000394141
0.000394114
0.000394114
0.000396185
0.000358073
0.000358046
0.000358046
0.000360117
0.000322006
0.000321978
0.000321977
0.000324047
0.00028594
0.000285913
0.000285912
0.000287981
0.000249874
0.000249846
0.000249847
0.000251915
0.000213808
0.000213779
0.000213778
0.000215844
0.000177742
0.000177716
0.000177716
0.000179774
0.000141674
0.00014165
0.00014165
0.000143703
0.0001056
0.000105579
0.000105579
0.000107615
6.95296e-05
6.95054e-05
6.95046e-05
7.1505e-05
3.42405e-05
3.36722e-05
3.36687e-05
3.55141e-05
5.94528e-06
6.70907e-06
6.70819e-06
5.07397e-06
0.00353792
0.00353552
0.0035355
0.00353785
0.00353554
0.00353558
0.00354181
0.00354178
0.00354182
0.00354181
0.0035355
0.00353558
0.00353791
0.00353561
0.00353558
0.00353792
0.00353315
0.00350393
0.00353231
0.00353232
0.00350584
0.00350579
0.0035331
0.00350395
0.00353233
0.00353234
0.00350582
0.0035058
0.00353233
0.00350582
0.00350576
0.00353316
0.00350403
0.00353229
0.00350596
0.00350577
0.00350389
0.00349915
0.00346566
0.00349624
0.00349619
0.00346791
0.00346786
0.00349915
0.00346569
0.00349621
0.00349618
0.0034679
0.00346791
0.00349618
0.00346791
0.00346794
0.00349916
0.00346564
0.00349623
0.00346806
0.00346793
0.00346567
0.00346018
0.00342241
0.00345788
0.0034579
0.0034255
0.00342551
0.00346022
0.00342243
0.00345788
0.00345784
0.00342551
0.00342552
0.00345785
0.00342555
0.00342555
0.00346017
0.00342241
0.00345787
0.00342548
0.0034255
0.00342242
0.00341619
0.00337457
0.00341392
0.00341398
0.00337783
0.00337782
0.00341622
0.00337457
0.00341392
0.00341393
0.00337783
0.00337784
0.00341393
0.00337784
0.00337788
0.0034162
0.00337458
0.00341395
0.00337792
0.00337785
0.00337456
0.00336809
0.00332596
0.00336569
0.0033657
0.00332919
0.00332919
0.00336809
0.00332597
0.00336568
0.00336566
0.0033292
0.00332917
0.00336568
0.00332918
0.00332918
0.00336809
0.00332597
0.00336568
0.00332919
0.00332919
0.00332596
0.00331955
0.00327805
0.00331712
0.00331713
0.00328125
0.00328126
0.00331956
0.00327805
0.00331712
0.00331714
0.00328124
0.00328125
0.00331715
0.00328126
0.00328127
0.00331956
0.00327806
0.00331714
0.00328123
0.00328127
0.00327805
0.00327174
0.00323075
0.00326933
0.00326933
0.00323385
0.00323385
0.00327173
0.00323074
0.00326934
0.00326936
0.00323387
0.00323387
0.00326935
0.00323386
0.00323385
0.00327176
0.00323076
0.00326935
0.00323388
0.00323386
0.00323074
0.00322455
0.00318438
0.00322211
0.00322209
0.00318733
0.00318736
0.00322452
0.0031844
0.0032221
0.00322213
0.00318734
0.00318735
0.0032221
0.00318737
0.00318734
0.00322457
0.0031844
0.00322212
0.00318732
0.00318736
0.00318439
0.00317834
0.00313909
0.00317593
0.0031759
0.00314194
0.00314196
0.00317834
0.00313908
0.00317592
0.00317592
0.00314195
0.00314196
0.00317592
0.00314196
0.00314196
0.00317836
0.00313908
0.00317591
0.00314202
0.00314197
0.00313909
0.00313318
0.00309465
0.00313076
0.00313073
0.00309743
0.00309745
0.00313316
0.00309462
0.00313075
0.00313075
0.00309744
0.00309742
0.00313076
0.00309745
0.00309741
0.00313318
0.00309466
0.00313074
0.00309747
0.00309744
0.00309464
0.00308886
0.00305101
0.00308643
0.0030864
0.00305376
0.00305376
0.00308882
0.00305104
0.00308642
0.00308639
0.00305374
0.00305372
0.00308643
0.00305378
0.00305368
0.00308887
0.00305102
0.0030864
0.00305371
0.00305367
0.00305097
0.00304526
0.00300786
0.00304281
0.00304287
0.0030105
0.00301056
0.00304532
0.00300784
0.00304282
0.00304281
0.00301047
0.00301051
0.00304285
0.00301056
0.00301055
0.0030453
0.00300793
0.00304283
0.00301053
0.00301054
0.0030079
0.0030023
0.0029652
0.00299993
0.00299979
0.00296788
0.00296781
0.00300222
0.00296519
0.00299992
0.00299976
0.0029678
0.00296777
0.00299992
0.00296783
0.00296787
0.0030023
0.0029652
0.00299991
0.00296785
0.0029679
0.0029652
0.0029597
0.00292276
0.00295737
0.00295726
0.00292558
0.00292535
0.00295961
0.00292271
0.00295738
0.00295706
0.00292545
0.00292544
0.00295721
0.00292534
0.00292543
0.00295964
0.00292271
0.0029572
0.00292545
0.00292543
0.00292278
0.00291725
0.00288077
0.00291498
0.00291493
0.00288359
0.00288326
0.00291725
0.0028806
0.00291496
0.00291471
0.00288352
0.00288344
0.00291478
0.00288327
0.00288336
0.00291721
0.00288067
0.00291481
0.00288325
0.00288323
0.00288069
0.00287531
0.00283897
0.00287308
0.00287293
0.00284148
0.00284149
0.0028752
0.00283878
0.00287303
0.00287286
0.00284146
0.00284157
0.00287278
0.00284148
0.00284158
0.00287517
0.00283902
0.00287276
0.00284171
0.00284156
0.00283889
0.0028337
0.00279739
0.00283143
0.00283123
0.00280008
0.0028
0.00283345
0.00279748
0.00283147
0.00283118
0.00280005
0.00280026
0.00283107
0.00279998
0.00280017
0.00283363
0.00279745
0.00283103
0.0028003
0.00280013
0.00279752
0.00279209
0.00275628
0.00278984
0.00278977
0.00275893
0.0027592
0.00279212
0.00275618
0.00278983
0.00278991
0.00275895
0.00275909
0.00278973
0.00275917
0.00275916
0.00279219
0.00275636
0.00278972
0.00275911
0.00275914
0.0027562
0.002751
0.00271538
0.00274882
0.00274867
0.00271841
0.00271881
0.00275099
0.00271563
0.00274871
0.0027488
0.00271847
0.00271848
0.00274873
0.00271881
0.00271854
0.00275108
0.00271557
0.00274876
0.00271842
0.00271853
0.00271556
0.00271029
0.00267492
0.00270828
0.00270881
0.0026778
0.00267749
0.00271065
0.00267477
0.00270825
0.00270823
0.00267787
0.00267808
0.00270837
0.00267755
0.00267785
0.00271036
0.00267502
0.00270844
0.00267803
0.00267786
0.00267494
0.00266989
0.00263476
0.00266786
0.0026674
0.00263791
0.00263815
0.00266958
0.00263486
0.002668
0.00266793
0.00263788
0.00263788
0.0026677
0.00263809
0.00263798
0.00266997
0.00263488
0.00266771
0.00263791
0.00263802
0.00263483
0.00262973
0.00259496
0.00262781
0.00262794
0.00259798
0.00259806
0.00262989
0.00259492
0.00262791
0.00262782
0.00259795
0.00259817
0.00262791
0.002598
0.0025982
0.00262975
0.0025952
0.00262791
0.00259822
0.00259821
0.00259513
0.0025902
0.00255538
0.00258834
0.00258831
0.00255838
0.00255837
0.00259013
0.00255537
0.00258834
0.00258829
0.00255836
0.00255825
0.00258828
0.00255836
0.00255829
0.00259024
0.00255522
0.00258827
0.00255825
0.00255822
0.00255527
0.00255019
0.00251662
0.00254847
0.00254847
0.00251941
0.00251933
0.00255021
0.00251654
0.00254844
0.0025486
0.00251939
0.00251927
0.00254858
0.00251933
0.00251944
0.00255024
0.00251648
0.0025486
0.00251926
0.00251942
0.00251658
0.00251145
0.00247767
0.00250946
0.0025094
0.00248028
0.00248037
0.00251131
0.00247791
0.00250944
0.00250939
0.0024803
0.00248015
0.00250941
0.00248036
0.00248027
0.0025113
0.00247734
0.00250941
0.00248016
0.0024803
0.00247748
0.00247303
0.00243856
0.00247063
0.00247055
0.00244132
0.00244149
0.00247285
0.00243847
0.00247065
0.00247043
0.00244131
0.00244153
0.00247064
0.00244149
0.00244142
0.00247229
0.00243923
0.00247067
0.00244154
0.0024414
0.00243864
0.00243334
0.00240138
0.00243165
0.00243193
0.0024031
0.00240286
0.00243387
0.00240039
0.00243164
0.00243178
0.0024031
0.002403
0.00243165
0.00240283
0.00240304
0.00243417
0.00240013
0.00243163
0.00240299
0.00240307
0.0024009
0.00239655
0.0023614
0.00239335
0.00239322
0.00236434
0.00236443
0.00239529
0.00236142
0.00239338
0.00239345
0.00236434
0.00236438
0.00239347
0.00236446
0.00236434
0.00239553
0.00236203
0.00239345
0.00236438
0.00236435
0.00236188
0.00235637
0.00232475
0.00235492
0.00235505
0.00232658
0.00232654
0.00235675
0.00232459
0.00235491
0.00235476
0.00232653
0.00232661
0.00235479
0.00232652
0.00232661
0.00235683
0.00232426
0.00235478
0.00232661
0.00232659
0.00232448
0.00231991
0.0022857
0.002317
0.00231698
0.00228835
0.00228836
0.00231966
0.00228572
0.00231699
0.00231709
0.0022884
0.00228838
0.00231709
0.00228837
0.00228836
0.00231947
0.0022861
0.00231708
0.00228838
0.00228837
0.00228594
0.00228077
0.0022482
0.00227887
0.00227888
0.00225061
0.0022506
0.0022808
0.0022482
0.0022789
0.00227884
0.00225058
0.00225057
0.00227887
0.0022506
0.00225055
0.00228104
0.00224799
0.00227887
0.00225056
0.00225055
0.00224808
0.00224331
0.00221065
0.00224121
0.00224121
0.00221305
0.00221304
0.00224332
0.00221064
0.0022412
0.00224117
0.00221305
0.00221306
0.00224118
0.00221304
0.00221305
0.00224315
0.0022107
0.00224118
0.00221306
0.00221305
0.00221064
0.00220576
0.00217312
0.00220367
0.00220366
0.00217555
0.00217556
0.00220574
0.00217312
0.00220366
0.00220368
0.00217554
0.00217554
0.00220367
0.00217555
0.00217556
0.0022058
0.0021731
0.00220367
0.00217554
0.00217555
0.00217313
0.00216823
0.00213579
0.00216621
0.00216621
0.00213824
0.00213823
0.00216823
0.0021358
0.00216622
0.0021662
0.00213824
0.00213823
0.00216621
0.00213824
0.00213822
0.00216821
0.00213579
0.0021662
0.00213823
0.00213823
0.00213578
0.0021309
0.00209862
0.00212893
0.00212893
0.00210101
0.00210104
0.00213091
0.0020986
0.00212891
0.00212891
0.00210101
0.00210103
0.00212892
0.00210103
0.00210105
0.00213091
0.00209862
0.00212892
0.00210104
0.00210104
0.00209862
0.00209376
0.0020616
0.00209175
0.00209175
0.00206404
0.00206404
0.00209374
0.00206163
0.00209177
0.00209177
0.00206404
0.00206401
0.00209177
0.00206401
0.002064
0.00209374
0.0020616
0.00209176
0.002064
0.00206401
0.0020616
0.00205673
0.00202473
0.00205478
0.0020548
0.00202707
0.00202706
0.00205676
0.00202469
0.00205478
0.00205477
0.00202708
0.00202711
0.00205477
0.00202709
0.0020271
0.00205675
0.00202474
0.00205478
0.00202712
0.00202709
0.00202472
0.00201988
0.00198802
0.00201788
0.00201784
0.00199038
0.00199038
0.00201984
0.00198803
0.00201788
0.0020179
0.00199038
0.00199032
0.00201789
0.00199036
0.00199035
0.00201987
0.001988
0.00201788
0.0019903
0.00199034
0.00198802
0.00198317
0.00195144
0.0019812
0.00198121
0.00195373
0.00195373
0.00198319
0.00195146
0.00198121
0.00198116
0.00195374
0.00195381
0.00198119
0.00195378
0.00195379
0.00198318
0.0019515
0.00198119
0.00195383
0.00195378
0.00195147
0.00194663
0.0019151
0.00194464
0.00194463
0.00191738
0.00191742
0.00194665
0.00191512
0.00194463
0.00194468
0.00191738
0.00191733
0.00194467
0.00191737
0.00191734
0.00194666
0.00191508
0.00194466
0.00191732
0.00191735
0.00191509
0.00191028
0.00187886
0.00190827
0.00190832
0.00188107
0.00188102
0.00191029
0.00187879
0.0019083
0.00190826
0.00188109
0.00188113
0.00190826
0.00188102
0.00188109
0.00191028
0.00187888
0.00190827
0.00188113
0.00188111
0.00187887
0.00187407
0.00184281
0.00187205
0.00187199
0.00184504
0.00184508
0.00187402
0.00184288
0.00187204
0.00187207
0.00184497
0.001845
0.00187206
0.00184508
0.00184502
0.00187408
0.00184281
0.00187207
0.00184498
0.00184502
0.00184282
0.00183803
0.00180697
0.00183603
0.00183609
0.00180912
0.00180912
0.0018381
0.00180695
0.00183598
0.00183601
0.00180912
0.00180916
0.00183603
0.00180911
0.00180917
0.00183804
0.00180699
0.00183602
0.00180917
0.00180917
0.00180703
0.00180223
0.0017714
0.0018002
0.00180018
0.00177353
0.00177351
0.00180221
0.0017714
0.00180021
0.00180022
0.00177353
0.00177348
0.00180025
0.00177351
0.00177349
0.00180224
0.00177135
0.00180026
0.00177348
0.00177348
0.00177134
0.00176667
0.00173601
0.00176465
0.00176464
0.00173813
0.00173806
0.00176667
0.00173599
0.00176466
0.0017646
0.00173813
0.00173811
0.00176459
0.00173813
0.00173809
0.00176662
0.00173602
0.00176458
0.00173811
0.00173809
0.001736
0.00173131
0.00170093
0.00172932
0.00172925
0.00170299
0.001703
0.00173129
0.00170095
0.00172931
0.00172931
0.00170298
0.00170301
0.00172931
0.00170298
0.00170298
0.00173132
0.00170096
0.00172932
0.00170301
0.00170299
0.00170093
0.00169629
0.00166624
0.00169429
0.00169432
0.0016683
0.00166834
0.00169631
0.00166626
0.00169428
0.0016943
0.00166831
0.00166829
0.00169426
0.00166833
0.00166828
0.0016963
0.00166622
0.00169426
0.00166829
0.00166829
0.00166623
0.00166159
0.00163158
0.00165963
0.00165965
0.00163359
0.0016336
0.00166162
0.00163158
0.00165963
0.00165962
0.00163357
0.00163359
0.00165963
0.0016336
0.00163358
0.00166159
0.00163158
0.00165964
0.0016336
0.00163358
0.00163158
0.00162697
0.00159767
0.00162497
0.00162499
0.00159958
0.0015996
0.00162697
0.00159766
0.00162496
0.00162498
0.00159959
0.0015996
0.00162496
0.00159958
0.00159957
0.00162697
0.00159766
0.00162496
0.00159957
0.00159956
0.00159765
0.00159319
0.00156432
0.00159125
0.00159126
0.00156637
0.00156638
0.00159318
0.00156432
0.00159127
0.00159127
0.0015664
0.00156639
0.00159125
0.00156639
0.00156642
0.00159318
0.00156432
0.00159124
0.00156638
0.00156641
0.00156434
0.00155983
0.00153042
0.00155802
0.00155802
0.00153259
0.00153258
0.00155982
0.00153042
0.00155804
0.00155803
0.00153258
0.00153257
0.00155807
0.00153259
0.00153261
0.00155983
0.00153042
0.00155806
0.00153259
0.00153261
0.00153043
0.00152578
0.00149513
0.00152394
0.00152393
0.00149727
0.00149728
0.00152578
0.00149514
0.00152394
0.00152393
0.00149728
0.00149727
0.00152395
0.00149728
0.00149728
0.00152578
0.00149513
0.00152395
0.00149728
0.00149728
0.00149513
0.00149022
0.00145788
0.00148815
0.00148815
0.00146002
0.00146001
0.00149022
0.00145787
0.00148814
0.00148814
0.00146002
0.00146001
0.00148814
0.00146001
0.00146001
0.00149022
0.00145787
0.00148814
0.00146001
0.00146001
0.00145786
0.00145282
0.00142069
0.00145055
0.00145055
0.00142262
0.00142262
0.00145281
0.00142069
0.00145055
0.00145055
0.00142262
0.00142262
0.00145054
0.00142262
0.00142262
0.00145281
0.00142069
0.00145054
0.00142262
0.00142262
0.00142069
0.0014157
0.00138407
0.00141335
0.00141335
0.00138596
0.00138596
0.0014157
0.00138407
0.00141335
0.00141335
0.00138596
0.00138596
0.00141335
0.00138596
0.00138596
0.0014157
0.00138407
0.00141335
0.00138596
0.00138596
0.00138407
0.00137929
0.00134984
0.00137709
0.00137709
0.00135165
0.00135165
0.0013793
0.00134984
0.00137709
0.00137709
0.00135165
0.00135165
0.0013771
0.00135166
0.00135166
0.0013793
0.00134984
0.0013771
0.00135166
0.00135166
0.00134984
0.00134548
0.00131819
0.00134357
0.00134357
0.00132013
0.00132013
0.00134548
0.00131819
0.00134357
0.00134357
0.00132013
0.00132013
0.00134357
0.00132013
0.00132013
0.00134548
0.00131819
0.00134357
0.00132013
0.00132013
0.00131819
0.00131408
0.0012878
0.00131252
0.00131252
0.00128989
0.00128988
0.00131408
0.0012878
0.00131252
0.00131252
0.00128989
0.00128988
0.00131252
0.00128989
0.00128988
0.00131408
0.0012878
0.00131252
0.00128989
0.00128989
0.0012878
0.00128371
0.00125722
0.00128232
0.00128232
0.0012593
0.00125931
0.00128371
0.00125722
0.00128232
0.00128232
0.00125931
0.00125931
0.00128232
0.0012593
0.0012593
0.00128371
0.00125722
0.00128232
0.00125931
0.00125931
0.00125722
0.00125301
0.0012255
0.00125151
0.00125151
0.00122754
0.00122754
0.00125301
0.0012255
0.00125151
0.00125151
0.00122754
0.00122754
0.0012515
0.00122754
0.00122754
0.00125301
0.0012255
0.00125151
0.00122754
0.00122754
0.0012255
0.00122107
0.0011922
0.00121936
0.00121936
0.00119423
0.00119423
0.00122107
0.0011922
0.00121936
0.00121936
0.00119423
0.00119423
0.00121936
0.00119423
0.00119423
0.00122107
0.0011922
0.00121936
0.00119423
0.00119423
0.0011922
0.00118757
0.00115758
0.00118568
0.00118568
0.00115962
0.00115962
0.00118757
0.00115758
0.00118568
0.00118568
0.00115962
0.00115962
0.00118568
0.00115962
0.00115962
0.00118757
0.00115758
0.00118568
0.00115962
0.00115962
0.00115758
0.00115281
0.00112215
0.00115082
0.00115082
0.0011242
0.0011242
0.00115281
0.00112215
0.00115082
0.00115082
0.0011242
0.0011242
0.00115082
0.0011242
0.0011242
0.00115281
0.00112215
0.00115082
0.0011242
0.0011242
0.00112215
0.00111731
0.00108632
0.00111527
0.00111527
0.00108837
0.00108837
0.00111731
0.00108632
0.00111527
0.00111527
0.00108837
0.00108837
0.00111527
0.00108837
0.00108837
0.00111731
0.00108632
0.00111527
0.00108837
0.00108837
0.00108632
0.00108144
0.00105031
0.00107938
0.00107938
0.00105237
0.00105237
0.00108144
0.00105031
0.00107938
0.00107938
0.00105237
0.00105237
0.00107938
0.00105237
0.00105237
0.00108144
0.00105031
0.00107938
0.00105237
0.00105237
0.00105031
0.00104543
0.00101426
0.00104336
0.00104336
0.00101632
0.00101632
0.00104543
0.00101426
0.00104336
0.00104336
0.00101632
0.00101632
0.00104336
0.00101632
0.00101632
0.00104543
0.00101426
0.00104336
0.00101632
0.00101632
0.00101426
0.00100938
0.000978189
0.00100731
0.00100731
0.000980249
0.000980249
0.00100937
0.000978189
0.00100731
0.00100731
0.000980249
0.000980249
0.00100731
0.000980249
0.000980249
0.00100938
0.000978189
0.00100731
0.000980249
0.000980249
0.000978189
0.000973301
0.000942117
0.000971229
0.000971229
0.000944177
0.000944177
0.000973301
0.000942117
0.000971229
0.000971229
0.000944176
0.000944176
0.000971229
0.000944177
0.000944177
0.000973301
0.000942116
0.000971229
0.000944176
0.000944176
0.000942116
0.000937231
0.000906046
0.00093516
0.00093516
0.000908105
0.000908105
0.000937231
0.000906046
0.00093516
0.00093516
0.000908105
0.000908105
0.00093516
0.000908105
0.000908105
0.000937231
0.000906046
0.00093516
0.000908105
0.000908105
0.000906045
0.000901159
0.000869971
0.000899086
0.000899086
0.000872032
0.000872032
0.000901158
0.000869971
0.000899086
0.000899086
0.000872032
0.000872032
0.000899086
0.000872032
0.000872032
0.000901158
0.000869971
0.000899086
0.000872032
0.000872032
0.000869971
0.000865084
0.000833903
0.000863013
0.000863013
0.000835963
0.000835963
0.000865084
0.000833903
0.000863013
0.000863013
0.000835963
0.000835963
0.000863014
0.000835962
0.000835963
0.000865084
0.000833902
0.000863014
0.000835963
0.000835963
0.000833902
0.000829016
0.000797828
0.000826945
0.000826945
0.000799887
0.000799887
0.000829016
0.000797828
0.000826945
0.000826945
0.000799887
0.000799887
0.000826945
0.000799887
0.000799888
0.000829016
0.000797828
0.000826945
0.000799887
0.000799887
0.000797828
0.000792941
0.000761762
0.00079087
0.00079087
0.000763821
0.000763821
0.000792941
0.000761762
0.00079087
0.00079087
0.000763821
0.000763822
0.000790871
0.000763821
0.000763822
0.000792941
0.000761762
0.000790871
0.000763821
0.000763821
0.000761761
0.000756875
0.00072569
0.000754803
0.000754803
0.00072775
0.00072775
0.000756874
0.00072569
0.000754803
0.000754803
0.00072775
0.00072775
0.000754803
0.00072775
0.00072775
0.000756875
0.00072569
0.000754803
0.00072775
0.00072775
0.00072569
0.000720804
0.000689622
0.000718734
0.000718734
0.000691681
0.000691681
0.000720804
0.000689622
0.000718734
0.000718734
0.000691681
0.000691681
0.000718734
0.000691681
0.000691681
0.000720804
0.000689621
0.000718734
0.000691681
0.000691681
0.000689621
0.000684735
0.000653553
0.000682664
0.000682663
0.000655613
0.000655613
0.000684734
0.000653554
0.000682664
0.000682664
0.000655612
0.000655613
0.000682664
0.000655613
0.000655613
0.000684735
0.000653554
0.000682664
0.000655613
0.000655613
0.000653554
0.000648667
0.000617482
0.000646595
0.000646595
0.000619543
0.000619543
0.000648667
0.000617483
0.000646595
0.000646595
0.000619543
0.000619543
0.000646595
0.000619543
0.000619543
0.000648667
0.000617482
0.000646595
0.000619543
0.000619543
0.000617482
0.000612596
0.000581414
0.000610526
0.000610526
0.000583474
0.000583473
0.000612596
0.000581414
0.000610526
0.000610526
0.000583473
0.000583473
0.000610526
0.000583473
0.000583474
0.000612597
0.000581414
0.000610526
0.000583473
0.000583473
0.000581414
0.000576527
0.000545346
0.000574456
0.000574456
0.000547406
0.000547406
0.000576527
0.000545347
0.000574456
0.000574456
0.000547405
0.000547406
0.000574456
0.000547406
0.000547406
0.000576527
0.000545346
0.000574456
0.000547406
0.000547406
0.000545346
0.00054046
0.000509275
0.000538388
0.000538388
0.000511335
0.000511335
0.000540459
0.000509276
0.000538388
0.000538388
0.000511335
0.000511336
0.000538388
0.000511336
0.000511336
0.00054046
0.000509276
0.000538388
0.000511336
0.000511335
0.000509276
0.00050439
0.000473205
0.000502319
0.00050232
0.000475265
0.000475265
0.00050439
0.000473205
0.000502319
0.00050232
0.000475266
0.000475265
0.00050232
0.000475264
0.000475265
0.000504391
0.000473205
0.00050232
0.000475264
0.000475264
0.000473205
0.000468319
0.000437139
0.000466249
0.000466249
0.000439198
0.000439197
0.000468319
0.000437138
0.000466249
0.000466249
0.000439198
0.000439197
0.000466249
0.000439199
0.000439199
0.000468319
0.000437138
0.000466248
0.000439199
0.000439199
0.000437139
0.000432252
0.000401071
0.000430181
0.00043018
0.00040313
0.00040313
0.00043225
0.000401071
0.000430181
0.00043018
0.000403129
0.00040313
0.000430181
0.00040313
0.00040313
0.00043225
0.000401071
0.00043018
0.00040313
0.00040313
0.000401071
0.000396184
0.000365002
0.000394113
0.000394112
0.000367062
0.000367062
0.000396184
0.000365004
0.000394113
0.000394112
0.000367061
0.000367062
0.000394115
0.00036706
0.00036706
0.000396184
0.000365003
0.000394115
0.00036706
0.00036706
0.000365002
0.000360115
0.000328934
0.000358045
0.000358046
0.000330994
0.000330994
0.000360117
0.000328934
0.000358045
0.000358046
0.000330994
0.000330994
0.000358046
0.000330994
0.000330994
0.000360116
0.000328934
0.000358046
0.000330994
0.000330993
0.000328934
0.000324047
0.000292868
0.000321979
0.000321979
0.000294926
0.000294926
0.000324047
0.000292869
0.000321979
0.000321979
0.000294926
0.000294926
0.000321978
0.000294928
0.000294928
0.000324047
0.000292868
0.000321977
0.000294928
0.000294928
0.000292869
0.000287979
0.000256803
0.000285911
0.000285912
0.000258859
0.000258859
0.00028798
0.000256803
0.000285912
0.000285912
0.000258859
0.00025886
0.000285913
0.000258859
0.000258859
0.00028798
0.000256802
0.000285912
0.00025886
0.00025886
0.000256803
0.000251914
0.000220735
0.000249846
0.000249846
0.000222793
0.000222793
0.000251914
0.000220737
0.000249846
0.000249845
0.000222793
0.000222794
0.000249846
0.000222793
0.000222793
0.000251914
0.000220735
0.000249847
0.000222793
0.000222792
0.000220735
0.000215843
0.000184674
0.000213779
0.000213779
0.000186729
0.000186729
0.000215844
0.000184674
0.000213778
0.000213779
0.000186729
0.000186729
0.000213779
0.000186729
0.000186728
0.000215843
0.000184673
0.000213779
0.000186729
0.000186728
0.000184672
0.000179777
0.000148607
0.000177716
0.000177716
0.00015066
0.00015066
0.000179777
0.000148608
0.000177716
0.000177716
0.000150659
0.000150659
0.000177715
0.000150659
0.00015066
0.000179777
0.000148607
0.000177714
0.000150659
0.000150661
0.000148609
0.000143702
0.000112541
0.00014165
0.00014165
0.000114588
0.000114588
0.000143702
0.000112541
0.00014165
0.00014165
0.000114588
0.000114588
0.00014165
0.000114588
0.000114587
0.000143701
0.000112541
0.000141651
0.000114588
0.000114587
0.000112541
0.000107614
7.64705e-05
0.00010558
0.00010558
7.85113e-05
7.85114e-05
0.000107614
7.64716e-05
0.000105579
0.000105579
7.8511e-05
7.85105e-05
0.00010558
7.85123e-05
7.85105e-05
0.000107614
7.64703e-05
0.00010558
7.85111e-05
7.85107e-05
7.64689e-05
7.15063e-05
4.04474e-05
6.9506e-05
6.95058e-05
4.24854e-05
4.24862e-05
7.1506e-05
4.0449e-05
6.95048e-05
6.95047e-05
4.24838e-05
4.24828e-05
6.95038e-05
4.24855e-05
4.24842e-05
7.15065e-05
4.0445e-05
6.95038e-05
4.24825e-05
4.24825e-05
4.04446e-05
3.55179e-05
8.25417e-06
3.36727e-05
3.36732e-05
1.12327e-05
1.12325e-05
3.55186e-05
8.2544e-06
3.36715e-05
3.36694e-05
1.12333e-05
1.12272e-05
3.3669e-05
1.12326e-05
1.12267e-05
3.55153e-05
8.25101e-06
3.36682e-05
1.12308e-05
1.12315e-05
8.25006e-06
5.07667e-06
6.70851e-06
6.70826e-06
5.0777e-06
6.70847e-06
6.70468e-06
5.94501e-06
5.94442e-06
5.94369e-06
6.70447e-06
5.07555e-06
6.70781e-06
0.00354501
0.00354762
0.00354642
0.00354647
0.00357321
0.00354766
0.00357695
0.00354785
0.00357337
0.00354778
0.00354793
0.00357703
0.0035586
0.00358017
0.00358008
0.00351757
0.00353108
0.00353489
0.0035097
0.00350772
0.00351317
0.00351747
0.00353109
0.00353492
0.00350969
0.00353334
0.00353334
0.00353334
0.00350674
0.00350676
0.00350674
0.00350677
0.00351697
0.00352872
0.00353389
0.00352463
0.00353604
0.00351415
0.00352483
0.00350789
0.00351308
0.00351694
0.00353391
0.00352898
0.00352469
0.00353606
0.00352486
0.0035142
0.0035348
0.00353455
0.00352181
0.003514
0.00351407
0.00349013
0.0035041
0.00350389
0.00348801
0.00350131
0.00348705
0.00349003
0.00350408
0.00350401
0.00348801
0.00349773
0.00349769
0.00349775
0.00346985
0.00346985
0.00346979
0.00346983
0.00348777
0.00350256
0.00349619
0.00348701
0.00350104
0.0034883
0.00348697
0.00350129
0.0034871
0.00348775
0.00349626
0.00350261
0.00348692
0.00350104
0.00348694
0.00348855
0.00350443
0.00350437
0.00348539
0.0034887
0.00348872
0.00344772
0.00346235
0.00346339
0.00344638
0.00346127
0.00344548
0.00344758
0.00346234
0.00346335
0.00344638
0.00345988
0.00345982
0.00345985
0.00342725
0.00342726
0.00342721
0.00342723
0.00344646
0.00346196
0.00345795
0.00344758
0.00346097
0.00344687
0.00344749
0.00346128
0.00344547
0.00344643
0.00345797
0.00346168
0.00344742
0.00346093
0.00344746
0.00344645
0.00346266
0.0034627
0.00344483
0.00344674
0.00344672
0.00340115
0.00341772
0.00341929
0.0033998
0.00341704
0.00339927
0.00340119
0.00341774
0.00341921
0.00339978
0.00341562
0.00341557
0.00341558
0.0033794
0.0033794
0.00337939
0.00337938
0.00340033
0.00341761
0.00341393
0.00340209
0.00341703
0.00340052
0.00340206
0.00341704
0.00339923
0.00340032
0.00341392
0.0034175
0.00340205
0.00341701
0.00340206
0.00340044
0.00341784
0.00341781
0.0033988
0.00339991
0.00339992
0.00335212
0.00336927
0.00337058
0.00335093
0.00336884
0.00335064
0.00335218
0.0033693
0.00337052
0.00335095
0.00336719
0.00336717
0.00336717
0.00333067
0.00333067
0.00333066
0.00333066
0.00335168
0.00336926
0.00336567
0.00335345
0.0033689
0.00335164
0.00335347
0.00336882
0.00335062
0.00335166
0.00336566
0.00336922
0.00335348
0.00336889
0.00335347
0.00335157
0.00336927
0.00336926
0.00335021
0.00335105
0.00335106
0.0033033
0.00332046
0.00332139
0.00330241
0.00332019
0.00330216
0.0033033
0.00332045
0.00332144
0.00330241
0.00331859
0.00331858
0.00331858
0.00328258
0.00328258
0.00328257
0.00328258
0.0033032
0.00332048
0.00331722
0.00330511
0.00332027
0.00330307
0.0033052