/*--------------------------------*- C++ -*----------------------------------*\
| =========                 |                                                 |
| \\      /  F ield         | OpenFOAM: The Open Source CFD Toolbox           |
|  \\    /   O peration     | Version:  v1906                                 |
|   \\  /    A nd           | Web:      www.OpenFOAM.com                      |
|    \\/     M anipulation  |                                                 |
\*---------------------------------------------------------------------------*/
FoamFile
{
    version     2.0;
    format      ascii;
    class       volScalarField;
    location    "100";
    object      epsilon;
}
// * * * * * * * * * * * * * * * * * * * * * * * * * * * * * * * * * * * * * //

dimensions      [0 2 -3 0 0 0 0];


internalField   nonuniform List<scalar> 
171728
(
6.37757e-08
1.47266e-08
9.56031e-09
6.22347e-09
6.45589e-08
1.56599e-08
9.90445e-09
5.80452e-09
6.68215e-08
1.6901e-08
1.04486e-08
5.52847e-09
6.90531e-08
1.81479e-08
1.13146e-08
5.33999e-09
7.1265e-08
1.91662e-08
1.23713e-08
5.31191e-09
7.34564e-08
1.97796e-08
1.36654e-08
5.49846e-09
7.55522e-08
1.95038e-08
1.52226e-08
5.83392e-09
7.76278e-08
1.89526e-08
1.69924e-08
6.30902e-09
7.94675e-08
1.9154e-08
1.91129e-08
7.03181e-09
8.14407e-08
2.13213e-08
2.16437e-08
8.08537e-09
8.37768e-08
2.41519e-08
2.47801e-08
9.55504e-09
8.62037e-08
2.77634e-08
2.85526e-08
1.19215e-08
8.84892e-08
3.22408e-08
3.2981e-08
1.54673e-08
9.11499e-08
3.78073e-08
3.83495e-08
2.00805e-08
9.38208e-08
4.41674e-08
4.46384e-08
2.55159e-08
9.6902e-08
5.18228e-08
5.24225e-08
3.31411e-08
1.00605e-07
6.12529e-08
6.19335e-08
4.48383e-08
1.05237e-07
7.36846e-08
7.42649e-08
6.35212e-08
1.11337e-07
9.07843e-08
9.10927e-08
9.38394e-08
1.19308e-07
1.17802e-07
1.17997e-07
1.468e-07
1.31369e-07
1.61452e-07
1.61773e-07
2.32201e-07
1.49273e-07
2.23736e-07
2.23918e-07
3.42553e-07
1.69784e-07
2.89623e-07
2.89701e-07
4.43158e-07
1.90447e-07
3.45114e-07
3.45177e-07
5.14148e-07
2.05023e-07
3.76212e-07
3.76273e-07
5.47865e-07
2.11314e-07
3.86592e-07
3.86654e-07
5.57145e-07
2.131e-07
3.88952e-07
3.89011e-07
5.58975e-07
2.13482e-07
3.89397e-07
3.89455e-07
5.59386e-07
2.13552e-07
3.8947e-07
3.89528e-07
5.59393e-07
2.13565e-07
3.89479e-07
3.89537e-07
5.59377e-07
2.1357e-07
3.89485e-07
3.89543e-07
5.59401e-07
2.13574e-07
3.89489e-07
3.89546e-07
5.59393e-07
2.13578e-07
3.89492e-07
3.8955e-07
5.59403e-07
2.1358e-07
3.89495e-07
3.89553e-07
5.59401e-07
2.13582e-07
3.89497e-07
3.89554e-07
5.59404e-07
2.13584e-07
3.89499e-07
3.89556e-07
5.59402e-07
2.13586e-07
3.89498e-07
3.89556e-07
5.59397e-07
2.13587e-07
3.89497e-07
3.89555e-07
5.59409e-07
2.13587e-07
3.89499e-07
3.89555e-07
5.59408e-07
2.13588e-07
3.89499e-07
3.89557e-07
5.5941e-07
2.13588e-07
3.89498e-07
3.89556e-07
5.5943e-07
2.13588e-07
3.89496e-07
3.89555e-07
5.59436e-07
2.13588e-07
3.89495e-07
3.89555e-07
5.59414e-07
2.13588e-07
3.89495e-07
3.89556e-07
5.59389e-07
2.13588e-07
3.89494e-07
3.89556e-07
5.59362e-07
2.13588e-07
3.89494e-07
3.89555e-07
5.59327e-07
2.13588e-07
3.89494e-07
3.89555e-07
5.59308e-07
2.13589e-07
3.89494e-07
3.89555e-07
5.59301e-07
2.13588e-07
3.89494e-07
3.89555e-07
5.59292e-07
2.13588e-07
3.89494e-07
3.89554e-07
5.59287e-07
2.13588e-07
3.89494e-07
3.89554e-07
5.59288e-07
2.13588e-07
3.89494e-07
3.89554e-07
5.5929e-07
2.13588e-07
3.89495e-07
3.89554e-07
5.59289e-07
2.13588e-07
3.89495e-07
3.89554e-07
5.59288e-07
2.13589e-07
3.89495e-07
3.89554e-07
5.59288e-07
2.13589e-07
3.89495e-07
3.89554e-07
5.59285e-07
2.13589e-07
3.89495e-07
3.89555e-07
5.59288e-07
2.13589e-07
3.89495e-07
3.89554e-07
5.59291e-07
2.13588e-07
3.89495e-07
3.89554e-07
5.59284e-07
2.13588e-07
3.89495e-07
3.89554e-07
5.59279e-07
2.13589e-07
3.89495e-07
3.89554e-07
5.59281e-07
2.13588e-07
3.89495e-07
3.89554e-07
5.59289e-07
2.13588e-07
3.89495e-07
3.89554e-07
5.59291e-07
2.13588e-07
3.89495e-07
3.89554e-07
5.59289e-07
2.13587e-07
3.89495e-07
3.89554e-07
5.59284e-07
2.13587e-07
3.89495e-07
3.89554e-07
5.59284e-07
2.13587e-07
3.89495e-07
3.89554e-07
5.59287e-07
2.13587e-07
3.89495e-07
3.89554e-07
5.59283e-07
2.13588e-07
3.89494e-07
3.89554e-07
5.59278e-07
2.13588e-07
3.89494e-07
3.89553e-07
5.5928e-07
2.13588e-07
3.89494e-07
3.89553e-07
5.59287e-07
2.13589e-07
3.89495e-07
3.89553e-07
5.5929e-07
2.13589e-07
3.89495e-07
3.89553e-07
5.5929e-07
2.13589e-07
3.89495e-07
3.89553e-07
5.59289e-07
2.13589e-07
3.89495e-07
3.89553e-07
5.59288e-07
2.13589e-07
3.89495e-07
3.89553e-07
5.5929e-07
2.13589e-07
3.89496e-07
3.89554e-07
5.59281e-07
2.1359e-07
3.89497e-07
3.89554e-07
5.59276e-07
2.1359e-07
3.89497e-07
3.89554e-07
5.59284e-07
2.1359e-07
3.89497e-07
3.89554e-07
5.59283e-07
2.13591e-07
3.89497e-07
3.89554e-07
5.59285e-07
2.13591e-07
3.89497e-07
3.89554e-07
5.59292e-07
2.13592e-07
3.89498e-07
3.89555e-07
5.5929e-07
2.13592e-07
3.89499e-07
3.89556e-07
5.59279e-07
2.13593e-07
3.895e-07
3.89557e-07
5.59284e-07
2.13594e-07
3.89501e-07
3.89558e-07
5.59294e-07
2.13595e-07
3.89502e-07
3.89559e-07
5.5929e-07
2.13596e-07
3.89502e-07
3.89559e-07
5.59279e-07
2.13597e-07
3.89502e-07
3.89559e-07
5.59278e-07
2.13598e-07
3.89499e-07
3.89556e-07
5.59279e-07
2.13599e-07
3.89494e-07
3.89551e-07
5.59274e-07
2.13601e-07
3.89483e-07
3.89539e-07
5.59256e-07
2.13597e-07
3.89455e-07
3.8951e-07
5.59212e-07
2.13492e-07
3.8938e-07
3.89433e-07
5.59003e-07
2.08793e-07
3.68066e-07
3.68076e-07
5.31712e-07
6.72365e-09
7.49426e-09
7.93742e-09
6.00981e-09
9.18952e-09
7.76246e-09
6.50723e-08
6.50374e-08
6.41163e-08
6.44848e-08
9.53278e-09
7.49707e-09
6.35448e-09
7.35538e-09
7.06693e-09
6.29924e-09
6.6293e-09
6.2693e-09
9.38174e-09
1.04892e-08
9.65691e-09
1.09226e-08
5.93511e-09
5.79567e-09
1.29356e-08
1.03788e-08
1.34104e-08
1.05818e-08
9.62166e-09
1.53661e-08
9.94718e-09
6.25177e-09
5.77757e-09
9.08873e-09
9.7952e-09
9.33622e-09
5.88243e-09
6.1903e-09
6.06437e-09
9.80335e-09
1.11298e-08
1.03467e-08
1.1782e-08
5.75015e-09
5.86138e-09
1.36468e-08
1.06934e-08
1.4444e-08
1.10761e-08
1.01106e-08
1.65845e-08
1.06358e-08
5.66123e-09
5.38188e-09
9.47642e-09
1.03062e-08
9.97541e-09
5.59595e-09
6.01302e-09
6.05365e-09
1.05359e-08
1.20236e-08
1.12606e-08
1.2798e-08
5.82329e-09
6.05518e-09
1.47376e-08
1.12286e-08
1.56894e-08
1.17101e-08
1.08349e-08
1.78503e-08
1.14861e-08
5.30594e-09
5.10759e-09
1.01747e-08
1.10856e-08
1.08536e-08
5.39023e-09
6.01908e-09
6.17509e-09
1.1501e-08
1.30729e-08
1.23485e-08
1.3993e-08
6.01727e-09
6.28767e-09
1.60368e-08
1.18922e-08
1.70993e-08
1.24991e-08
1.17204e-08
1.89411e-08
1.25032e-08
5.01469e-09
4.90566e-09
1.11112e-08
1.20957e-08
1.19665e-08
5.34012e-09
6.14034e-09
6.47517e-09
1.26789e-08
1.43068e-08
1.37807e-08
1.53416e-08
6.24659e-09
6.51829e-09
1.74756e-08
1.27193e-08
1.87087e-08
1.35202e-08
1.27777e-08
1.96897e-08
1.37332e-08
4.86526e-09
5.0508e-09
1.22704e-08
1.33487e-08
1.3308e-08
5.52017e-09
6.44934e-09
6.92736e-09
1.41644e-08
1.57086e-08
1.53867e-08
1.69505e-08
6.4735e-09
6.63693e-09
1.91229e-08
1.37984e-08
2.03659e-08
1.47964e-08
1.40658e-08
1.97292e-08
1.51719e-08
5.02928e-09
5.41769e-09
1.36806e-08
1.48133e-08
1.48787e-08
5.85216e-09
6.90142e-09
7.47389e-09
1.58245e-08
1.73883e-08
1.72675e-08
1.88147e-08
6.58241e-09
6.66585e-09
2.07774e-08
1.5155e-08
2.19043e-08
1.63508e-08
1.55897e-08
1.90023e-08
1.69012e-08
5.40271e-09
5.97258e-09
1.53173e-08
1.65137e-08
1.67175e-08
6.32148e-09
7.45338e-09
8.041e-09
1.78057e-08
1.9349e-08
1.94439e-08
2.09819e-08
6.63686e-09
7.2024e-09
2.22224e-08
1.68323e-08
2.2763e-08
1.83647e-08
1.74067e-08
1.90079e-08
1.89402e-08
5.96789e-09
6.76911e-09
1.72279e-08
1.85614e-08
1.88802e-08
7.0305e-09
8.01936e-09
8.76578e-09
2.00383e-08
2.15932e-08
2.19987e-08
2.36233e-08
7.19522e-09
8.22554e-09
2.28482e-08
1.89452e-08
2.30255e-08
2.07847e-08
1.95024e-08
2.07076e-08
2.14728e-08
6.77884e-09
7.85284e-09
1.94769e-08
2.09896e-08
2.14902e-08
8.06152e-09
8.77275e-09
1.01309e-08
2.2681e-08
2.43303e-08
2.50563e-08
2.65146e-08
8.25114e-09
9.63919e-09
2.30912e-08
2.14026e-08
2.38588e-08
2.3485e-08
2.21703e-08
2.3387e-08
2.45004e-08
7.88414e-09
9.3244e-09
2.22217e-08
2.39525e-08
2.45999e-08
9.48868e-09
1.02164e-08
1.24672e-08
2.59498e-08
2.72393e-08
2.87831e-08
2.92782e-08
9.69715e-09
1.16282e-08
2.44742e-08
2.42509e-08
2.68454e-08
2.67599e-08
2.53733e-08
2.68053e-08
2.822e-08
9.39703e-09
1.15315e-08
2.54712e-08
2.75183e-08
2.83468e-08
1.17619e-08
1.26168e-08
1.56261e-08
2.98372e-08
2.99643e-08
3.31681e-08
3.21953e-08
1.17537e-08
1.46604e-08
2.78126e-08
2.77609e-08
3.09353e-08
3.10335e-08
2.92863e-08
3.10491e-08
3.26832e-08
1.16877e-08
1.48542e-08
2.94296e-08
3.18415e-08
3.28751e-08
1.52117e-08
1.5861e-08
1.97994e-08
3.43125e-08
3.30871e-08
3.82149e-08
3.65015e-08
1.48992e-08
1.89825e-08
3.20767e-08
3.22124e-08
3.61187e-08
3.62764e-08
3.38833e-08
3.63907e-08
3.79464e-08
1.51066e-08
1.91899e-08
3.4101e-08
3.69835e-08
3.81988e-08
1.95064e-08
2.0346e-08
2.49987e-08
3.95819e-08
3.7769e-08
4.39456e-08
4.19891e-08
1.94961e-08
2.43184e-08
3.75192e-08
3.76713e-08
4.20083e-08
4.21556e-08
3.93168e-08
4.24204e-08
4.36637e-08
1.97197e-08
2.44905e-08
3.95961e-08
4.29006e-08
4.40172e-08
2.45884e-08
2.59631e-08
3.2388e-08
4.56423e-08
4.36608e-08
5.12977e-08
4.93025e-08
2.53171e-08
3.1946e-08
4.3737e-08
4.38839e-08
4.94107e-08
4.9575e-08
4.53296e-08
4.9844e-08
5.05655e-08
2.54859e-08
3.20939e-08
4.57131e-08
5.04004e-08
5.10671e-08
3.16998e-08
3.38986e-08
4.34191e-08
5.33329e-08
5.1337e-08
6.01897e-08
5.81968e-08
3.34749e-08
4.30319e-08
5.14294e-08
5.15972e-08
5.82627e-08
5.84311e-08
5.24542e-08
5.86064e-08
5.90949e-08
3.36268e-08
4.32718e-08
5.29605e-08
5.92953e-08
5.96483e-08
4.25135e-08
4.57347e-08
6.0456e-08
6.28403e-08
6.08781e-08
7.19259e-08
6.99998e-08
4.53523e-08
6.0032e-08
6.09255e-08
6.11057e-08
6.99506e-08
7.01905e-08
6.16763e-08
7.02986e-08
7.04341e-08
4.56147e-08
6.03287e-08
6.22621e-08
7.09033e-08
7.10187e-08
5.97216e-08
6.42027e-08
8.75331e-08
7.52871e-08
7.3449e-08
8.69294e-08
8.56963e-08
6.37738e-08
8.73314e-08
7.33624e-08
7.36451e-08
8.55262e-08
8.59486e-08
7.37977e-08
8.58618e-08
8.59204e-08
6.40936e-08
8.771e-08
7.43373e-08
8.6264e-08
8.63309e-08
8.74445e-08
9.38062e-08
1.35231e-07
9.16724e-08
9.06293e-08
1.10392e-07
1.09582e-07
9.36724e-08
1.35204e-07
9.04484e-08
9.08871e-08
1.0943e-07
1.09805e-07
9.08219e-08
1.0979e-07
1.09672e-07
9.40285e-08
1.35313e-07
9.12125e-08
1.09955e-07
1.09998e-07
1.35371e-07
1.46734e-07
2.15198e-07
1.1839e-07
1.17621e-07
1.48995e-07
1.48477e-07
1.4667e-07
2.14936e-07
1.17488e-07
1.17831e-07
1.48394e-07
1.48685e-07
1.17682e-07
1.48569e-07
1.48475e-07
1.46731e-07
2.15158e-07
1.17967e-07
1.48886e-07
1.48625e-07
2.14978e-07
2.32418e-07
3.22518e-07
1.61818e-07
1.61415e-07
2.07385e-07
2.07261e-07
2.32163e-07
3.22412e-07
1.61342e-07
1.61619e-07
2.07192e-07
2.07411e-07
1.61397e-07
2.07207e-07
2.07213e-07
2.32447e-07
3.22709e-07
1.61509e-07
2.07433e-07
2.07238e-07
3.22442e-07
3.42611e-07
4.26542e-07
2.23891e-07
2.23823e-07
2.7359e-07
2.73603e-07
3.42529e-07
4.26504e-07
2.2375e-07
2.23947e-07
2.73513e-07
2.73668e-07
2.23774e-07
2.73486e-07
2.73558e-07
3.42788e-07
4.26635e-07
2.23777e-07
2.73573e-07
2.73521e-07
4.26566e-07
4.43136e-07
5.0297e-07
2.89731e-07
2.8976e-07
3.33315e-07
3.33359e-07
4.43101e-07
5.02924e-07
2.89666e-07
2.89813e-07
3.33257e-07
3.33389e-07
2.89716e-07
3.3321e-07
3.33324e-07
4.43211e-07
5.03023e-07
2.89669e-07
3.33273e-07
3.33262e-07
5.03016e-07
5.1411e-07
5.42864e-07
3.45226e-07
3.4527e-07
3.70966e-07
3.71011e-07
5.14064e-07
5.42805e-07
3.4517e-07
3.45297e-07
3.7091e-07
3.71029e-07
3.45238e-07
3.70854e-07
3.70982e-07
5.14151e-07
5.42898e-07
3.45176e-07
3.70913e-07
3.70922e-07
5.42913e-07
5.4782e-07
5.54987e-07
3.76328e-07
3.76372e-07
3.85284e-07
3.85327e-07
5.47763e-07
5.5493e-07
3.76271e-07
3.76388e-07
3.85226e-07
3.8534e-07
3.76346e-07
3.85168e-07
3.85305e-07
5.47847e-07
5.55013e-07
3.76286e-07
3.8523e-07
3.85248e-07
5.55039e-07
5.57096e-07
5.57457e-07
3.86708e-07
3.8675e-07
3.88777e-07
3.8882e-07
5.57039e-07
5.57398e-07
3.86651e-07
3.86763e-07
3.88722e-07
3.88831e-07
3.86729e-07
3.88662e-07
3.88797e-07
5.57115e-07
5.57476e-07
3.86673e-07
3.88721e-07
3.88743e-07
5.57505e-07
5.58929e-07
5.57987e-07
3.89066e-07
3.89109e-07
3.8946e-07
3.89503e-07
5.58872e-07
5.57927e-07
3.89012e-07
3.8912e-07
3.89407e-07
3.89514e-07
3.89085e-07
3.89345e-07
3.89477e-07
5.58943e-07
5.58004e-07
3.89032e-07
3.89403e-07
3.89425e-07
5.5803e-07
5.59345e-07
5.58002e-07
3.89511e-07
3.89555e-07
3.89576e-07
3.89621e-07
5.59287e-07
5.57943e-07
3.89459e-07
3.89565e-07
3.89524e-07
3.89631e-07
3.89528e-07
3.89462e-07
3.89591e-07
5.59357e-07
5.58021e-07
3.89476e-07
3.8952e-07
3.89539e-07
5.58043e-07
5.59354e-07
5.57991e-07
3.89583e-07
3.89629e-07
3.8959e-07
3.89637e-07
5.59297e-07
5.57932e-07
3.89532e-07
3.89639e-07
3.89541e-07
3.89647e-07
3.89599e-07
3.89478e-07
3.89605e-07
5.59368e-07
5.5801e-07
3.89547e-07
3.89536e-07
3.89553e-07
5.58028e-07
5.59342e-07
5.58012e-07
3.89591e-07
3.89638e-07
3.89595e-07
3.89643e-07
5.59285e-07
5.57953e-07
3.89541e-07
3.89648e-07
3.89547e-07
3.89653e-07
3.89605e-07
3.89484e-07
3.89611e-07
5.59356e-07
5.58031e-07
3.89553e-07
3.89541e-07
3.89559e-07
5.58051e-07
5.59364e-07
5.58005e-07
3.89596e-07
3.89644e-07
3.89598e-07
3.89649e-07
5.59307e-07
5.57947e-07
3.89548e-07
3.89654e-07
3.89551e-07
3.89657e-07
3.89612e-07
3.89488e-07
3.89615e-07
5.59378e-07
5.58025e-07
3.8956e-07
3.89545e-07
3.89563e-07
5.58044e-07
5.59357e-07
5.58014e-07
3.89599e-07
3.89649e-07
3.89601e-07
3.89654e-07
5.593e-07
5.57954e-07
3.89552e-07
3.89658e-07
3.89556e-07
3.89661e-07
3.89615e-07
3.89492e-07
3.89618e-07
5.59371e-07
5.58035e-07
3.89563e-07
3.89549e-07
3.89567e-07
5.58054e-07
5.59366e-07
5.58013e-07
3.89601e-07
3.89655e-07
3.89603e-07
3.89659e-07
5.59308e-07
5.57953e-07
3.89556e-07
3.89662e-07
3.89559e-07
3.89664e-07
3.89619e-07
3.89494e-07
3.89621e-07
5.59381e-07
5.58034e-07
3.89567e-07
3.89552e-07
3.89569e-07
5.58052e-07
5.59364e-07
5.58015e-07
3.89603e-07
3.89659e-07
3.89604e-07
3.89662e-07
5.59307e-07
5.57955e-07
3.89559e-07
3.89664e-07
3.89561e-07
3.89666e-07
3.89621e-07
3.89497e-07
3.89622e-07
5.59381e-07
5.58037e-07
3.89569e-07
3.89554e-07
3.8957e-07
5.58055e-07
5.59366e-07
5.58016e-07
3.89603e-07
3.89662e-07
3.89604e-07
3.89664e-07
5.59309e-07
5.57955e-07
3.89561e-07
3.89666e-07
3.89562e-07
3.89667e-07
3.89622e-07
3.89498e-07
3.89623e-07
5.59382e-07
5.58038e-07
3.8957e-07
3.89556e-07
3.89571e-07
5.58051e-07
5.59367e-07
5.58014e-07
3.89603e-07
3.89664e-07
3.89603e-07
3.89664e-07
5.59309e-07
5.57954e-07
3.89562e-07
3.89667e-07
3.89563e-07
3.89667e-07
3.89623e-07
3.89498e-07
3.89623e-07
5.59384e-07
5.58036e-07
3.89571e-07
3.89555e-07
3.89571e-07
5.58051e-07
5.59367e-07
5.5801e-07
3.89603e-07
3.89664e-07
3.89603e-07
3.89664e-07
5.59309e-07
5.57951e-07
3.89563e-07
3.89667e-07
3.89564e-07
3.89667e-07
3.89623e-07
3.89498e-07
3.89623e-07
5.59383e-07
5.58033e-07
3.89571e-07
3.89555e-07
3.89571e-07
5.58063e-07
5.5936e-07
5.58024e-07
3.89603e-07
3.89664e-07
3.89604e-07
3.89666e-07
5.59301e-07
5.57968e-07
3.89563e-07
3.89667e-07
3.89565e-07
3.89668e-07
3.89623e-07
3.89499e-07
3.89624e-07
5.59376e-07
5.58049e-07
3.8957e-07
3.89556e-07
3.89572e-07
5.58058e-07
5.59369e-07
5.58032e-07
3.89603e-07
3.89665e-07
3.89604e-07
3.89665e-07
5.59317e-07
5.57966e-07
3.89564e-07
3.89667e-07
3.89564e-07
3.89668e-07
3.89624e-07
3.89498e-07
3.89623e-07
5.5939e-07
5.58047e-07
3.89571e-07
3.89556e-07
3.89571e-07
5.58062e-07
5.59388e-07
5.58007e-07
3.89604e-07
3.89666e-07
3.89601e-07
3.89663e-07
5.59331e-07
5.57937e-07
3.89564e-07
3.89668e-07
3.89564e-07
3.89667e-07
3.89623e-07
3.89497e-07
3.89623e-07
5.59402e-07
5.58019e-07
3.89571e-07
3.89555e-07
3.89572e-07
5.58073e-07
5.59372e-07
5.57986e-07
3.89602e-07
3.89663e-07
3.89602e-07
3.89661e-07
5.59307e-07
5.57929e-07
3.89565e-07
3.89667e-07
3.89565e-07
3.89667e-07
3.89623e-07
3.89496e-07
3.89624e-07
5.5938e-07
5.58009e-07
3.89571e-07
3.89555e-07
3.89572e-07
5.58058e-07
5.5934e-07
5.57999e-07
3.89602e-07
3.89661e-07
3.89601e-07
3.8966e-07
5.59279e-07
5.57949e-07
3.89565e-07
3.89667e-07
3.89565e-07
3.89667e-07
3.89623e-07
3.89496e-07
3.89624e-07
5.59356e-07
5.58027e-07
3.89572e-07
3.89556e-07
3.89572e-07
5.58023e-07
5.59334e-07
5.58024e-07
3.89601e-07
3.89659e-07
3.89601e-07
3.89659e-07
5.59283e-07
5.57969e-07
3.89565e-07
3.89667e-07
3.89566e-07
3.89668e-07
3.89624e-07
3.89495e-07
3.89624e-07
5.5936e-07
5.58043e-07
3.89572e-07
3.89557e-07
3.89572e-07
5.57995e-07
5.59352e-07
5.58035e-07
3.89601e-07
3.89658e-07
3.89602e-07
3.89658e-07
5.59301e-07
5.57973e-07
3.89565e-07
3.89667e-07
3.89566e-07
3.89667e-07
3.89624e-07
3.89494e-07
3.89623e-07
5.59375e-07
5.58045e-07
3.89572e-07
3.89556e-07
3.89572e-07
5.57967e-07
5.59369e-07
5.58032e-07
3.89601e-07
3.89658e-07
3.89603e-07
3.89658e-07
5.59311e-07
5.57971e-07
3.89566e-07
3.89667e-07
3.89566e-07
3.89667e-07
3.89623e-07
3.89494e-07
3.89622e-07
5.59381e-07
5.5804e-07
3.89572e-07
3.89555e-07
3.89572e-07
5.57939e-07
5.59372e-07
5.58025e-07
3.89603e-07
3.89658e-07
3.89604e-07
3.89658e-07
5.59314e-07
5.57965e-07
3.89566e-07
3.89667e-07
3.89566e-07
3.89667e-07
3.89623e-07
3.89494e-07
3.89623e-07
5.59379e-07
5.58038e-07
3.89572e-07
3.89555e-07
3.89572e-07
5.5793e-07
5.59367e-07
5.58025e-07
3.89604e-07
3.89658e-07
3.89606e-07
3.89658e-07
5.59311e-07
5.57959e-07
3.89565e-07
3.89667e-07
3.89565e-07
3.89668e-07
3.89623e-07
3.89494e-07
3.89623e-07
5.59376e-07
5.5804e-07
3.89572e-07
3.89555e-07
3.89572e-07
5.57925e-07
5.59364e-07
5.58028e-07
3.89606e-07
3.89657e-07
3.89607e-07
3.89658e-07
5.59304e-07
5.5796e-07
3.89565e-07
3.89667e-07
3.89564e-07
3.89668e-07
3.89623e-07
3.89493e-07
3.89623e-07
5.59377e-07
5.58039e-07
3.89572e-07
3.89554e-07
3.89572e-07
5.57914e-07
5.59366e-07
5.58028e-07
3.89607e-07
3.89657e-07
3.89609e-07
3.89658e-07
5.59301e-07
5.57964e-07
3.89564e-07
3.89667e-07
3.89564e-07
3.89668e-07
3.89623e-07
3.89493e-07
3.89623e-07
5.59377e-07
5.58038e-07
3.89572e-07
3.89554e-07
3.89572e-07
5.57908e-07
5.59367e-07
5.58025e-07
3.89609e-07
3.89657e-07
3.89611e-07
3.89657e-07
5.59301e-07
5.57968e-07
3.89564e-07
3.89667e-07
3.89563e-07
3.89667e-07
3.89623e-07
3.89494e-07
3.89623e-07
5.59375e-07
5.58039e-07
3.89572e-07
3.89554e-07
3.89571e-07
5.57908e-07
5.59364e-07
5.58027e-07
3.8961e-07
3.89657e-07
3.89612e-07
3.89658e-07
5.59304e-07
5.57971e-07
3.89563e-07
3.89667e-07
3.89563e-07
3.89668e-07
3.89623e-07
3.89494e-07
3.89622e-07
5.59374e-07
5.58041e-07
3.89571e-07
3.89554e-07
3.89571e-07
5.57906e-07
5.59362e-07
5.58032e-07
3.89612e-07
3.89657e-07
3.89613e-07
3.89658e-07
5.59308e-07
5.57972e-07
3.89562e-07
3.89667e-07
3.89562e-07
3.89668e-07
3.89623e-07
3.89494e-07
3.89622e-07
5.59376e-07
5.58043e-07
3.89571e-07
3.89554e-07
3.89571e-07
5.57903e-07
5.59367e-07
5.58029e-07
3.89613e-07
3.89657e-07
3.89614e-07
3.89658e-07
5.59311e-07
5.57969e-07
3.89562e-07
3.89667e-07
3.89562e-07
3.89667e-07
3.89623e-07
3.89494e-07
3.89622e-07
5.59378e-07
5.58041e-07
3.89571e-07
3.89554e-07
3.8957e-07
5.57902e-07
5.59367e-07
5.58026e-07
3.89614e-07
3.89657e-07
3.89615e-07
3.89658e-07
5.59311e-07
5.57966e-07
3.89562e-07
3.89667e-07
3.89562e-07
3.89668e-07
3.89623e-07
3.89495e-07
3.89622e-07
5.59377e-07
5.5804e-07
3.89571e-07
3.89554e-07
3.8957e-07
5.57902e-07
5.59362e-07
5.5803e-07
3.89614e-07
3.89657e-07
3.89615e-07
3.89658e-07
5.59307e-07
5.57967e-07
3.89562e-07
3.89667e-07
3.89563e-07
3.89668e-07
3.89623e-07
3.89495e-07
3.89622e-07
5.59376e-07
5.58042e-07
3.8957e-07
3.89554e-07
3.89569e-07
5.57901e-07
5.59364e-07
5.58031e-07
3.89615e-07
3.89657e-07
3.89616e-07
3.89658e-07
5.59306e-07
5.57969e-07
3.89562e-07
3.89667e-07
3.89562e-07
3.89668e-07
3.89623e-07
3.89495e-07
3.89622e-07
5.59376e-07
5.58044e-07
3.89569e-07
3.89554e-07
3.89568e-07
5.57904e-07
5.59365e-07
5.58031e-07
3.89616e-07
3.89657e-07
3.89616e-07
3.89658e-07
5.59309e-07
5.57968e-07
3.89562e-07
3.89667e-07
3.89562e-07
3.89667e-07
3.89623e-07
3.89495e-07
3.89622e-07
5.59379e-07
5.58043e-07
3.89569e-07
3.89554e-07
3.89568e-07
5.57903e-07
5.59365e-07
5.58032e-07
3.89616e-07
3.89658e-07
3.89616e-07
3.89658e-07
5.59309e-07
5.57966e-07
3.89562e-07
3.89667e-07
3.89562e-07
3.89667e-07
3.89623e-07
3.89495e-07
3.89623e-07
5.5938e-07
5.58041e-07
3.89568e-07
3.89554e-07
3.89568e-07
5.57897e-07
5.59366e-07
5.58033e-07
3.89616e-07
3.89658e-07
3.89616e-07
3.89658e-07
5.59306e-07
5.57967e-07
3.89562e-07
3.89667e-07
3.89562e-07
3.89667e-07
3.89623e-07
3.89495e-07
3.89623e-07
5.59378e-07
5.5804e-07
3.89568e-07
3.89554e-07
3.89568e-07
5.579e-07
5.59367e-07
5.58033e-07
3.89616e-07
3.89658e-07
3.89617e-07
3.89658e-07
5.59307e-07
5.57968e-07
3.89561e-07
3.89667e-07
3.89561e-07
3.89667e-07
3.89623e-07
3.89495e-07
3.89623e-07
5.59377e-07
5.58039e-07
3.89568e-07
3.89554e-07
3.89567e-07
5.57908e-07
5.59368e-07
5.58031e-07
3.89616e-07
3.89657e-07
3.89616e-07
3.89658e-07
5.59308e-07
5.57966e-07
3.89561e-07
3.89667e-07
3.89561e-07
3.89667e-07
3.89623e-07
3.89495e-07
3.89622e-07
5.59376e-07
5.58039e-07
3.89567e-07
3.89553e-07
3.89567e-07
5.57913e-07
5.59367e-07
5.5803e-07
3.89616e-07
3.89657e-07
3.89616e-07
3.89658e-07
5.59306e-07
5.57967e-07
3.89561e-07
3.89667e-07
3.89561e-07
3.89667e-07
3.89623e-07
3.89495e-07
3.89622e-07
5.59374e-07
5.58041e-07
3.89567e-07
3.89554e-07
3.89566e-07
5.57909e-07
5.59365e-07
5.58029e-07
3.89616e-07
3.89658e-07
3.89616e-07
3.89658e-07
5.59305e-07
5.57969e-07
3.8956e-07
3.89667e-07
3.8956e-07
3.89668e-07
3.89623e-07
3.89495e-07
3.89622e-07
5.59375e-07
5.58042e-07
3.89567e-07
3.89554e-07
3.89566e-07
5.57903e-07
5.59364e-07
5.58029e-07
3.89616e-07
3.89657e-07
3.89616e-07
3.89658e-07
5.59307e-07
5.57971e-07
3.8956e-07
3.89667e-07
3.8956e-07
3.89668e-07
3.89623e-07
3.89495e-07
3.89622e-07
5.59378e-07
5.5804e-07
3.89566e-07
3.89554e-07
3.89565e-07
5.57899e-07
5.59364e-07
5.5803e-07
3.89616e-07
3.89657e-07
3.89616e-07
3.89658e-07
5.5931e-07
5.57969e-07
3.8956e-07
3.89667e-07
3.8956e-07
3.89667e-07
3.89622e-07
3.89495e-07
3.89622e-07
5.59376e-07
5.5804e-07
3.89566e-07
3.89554e-07
3.89565e-07
5.57903e-07
5.59364e-07
5.58032e-07
3.89615e-07
3.89657e-07
3.89615e-07
3.89657e-07
5.5931e-07
5.57966e-07
3.89559e-07
3.89667e-07
3.89559e-07
3.89667e-07
3.89622e-07
3.89494e-07
3.89622e-07
5.59375e-07
5.58043e-07
3.89565e-07
3.89554e-07
3.89565e-07
5.57902e-07
5.59365e-07
5.58032e-07
3.89615e-07
3.89657e-07
3.89615e-07
3.89657e-07
5.59306e-07
5.57966e-07
3.89559e-07
3.89667e-07
3.89559e-07
3.89667e-07
3.89622e-07
3.89494e-07
3.89622e-07
5.59376e-07
5.58045e-07
3.89566e-07
3.89554e-07
3.89566e-07
5.57897e-07
5.59366e-07
5.58031e-07
3.89615e-07
3.89657e-07
3.89615e-07
3.89657e-07
5.59305e-07
5.57968e-07
3.89559e-07
3.89667e-07
3.89559e-07
3.89667e-07
3.89622e-07
3.89494e-07
3.89622e-07
5.5938e-07
5.58042e-07
3.89566e-07
3.89553e-07
3.89566e-07
5.57899e-07
5.59367e-07
5.5803e-07
3.89615e-07
3.89657e-07
3.89616e-07
3.89657e-07
5.59307e-07
5.57967e-07
3.89559e-07
3.89667e-07
3.89559e-07
3.89667e-07
3.89622e-07
3.89494e-07
3.89622e-07
5.5938e-07
5.58038e-07
3.89566e-07
3.89553e-07
3.89566e-07
5.57907e-07
5.59366e-07
5.58028e-07
3.89615e-07
3.89657e-07
3.89616e-07
3.89657e-07
5.59307e-07
5.57966e-07
3.89559e-07
3.89667e-07
3.89559e-07
3.89667e-07
3.89622e-07
3.89494e-07
3.89622e-07
5.59375e-07
5.58039e-07
3.89566e-07
3.89552e-07
3.89566e-07
5.57911e-07
5.59364e-07
5.58029e-07
3.89616e-07
3.89657e-07
3.89616e-07
3.89657e-07
5.59305e-07
5.57967e-07
3.89559e-07
3.89667e-07
3.89559e-07
3.89667e-07
3.89623e-07
3.89494e-07
3.89622e-07
5.59374e-07
5.58042e-07
3.89566e-07
3.89552e-07
3.89566e-07
5.57909e-07
5.59363e-07
5.5803e-07
3.89616e-07
3.89657e-07
3.89616e-07
3.89657e-07
5.59305e-07
5.57966e-07
3.89559e-07
3.89667e-07
3.89559e-07
3.89667e-07
3.89623e-07
3.89494e-07
3.89622e-07
5.59376e-07
5.58042e-07
3.89567e-07
3.89552e-07
3.89565e-07
5.57905e-07
5.59364e-07
5.5803e-07
3.89616e-07
3.89657e-07
3.89616e-07
3.89656e-07
5.59305e-07
5.57966e-07
3.89559e-07
3.89667e-07
3.89559e-07
3.89667e-07
3.89623e-07
3.89494e-07
3.89621e-07
5.59378e-07
5.58042e-07
3.89566e-07
3.89552e-07
3.89565e-07
5.57902e-07
5.59365e-07
5.58031e-07
3.89616e-07
3.89657e-07
3.89616e-07
3.89656e-07
5.59305e-07
5.57968e-07
3.8956e-07
3.89667e-07
3.89559e-07
3.89667e-07
3.89623e-07
3.89494e-07
3.89621e-07
5.59377e-07
5.58041e-07
3.89567e-07
3.89551e-07
3.89565e-07
5.57902e-07
5.59365e-07
5.58031e-07
3.89616e-07
3.89657e-07
3.89616e-07
3.89656e-07
5.59306e-07
5.57969e-07
3.8956e-07
3.89667e-07
3.89559e-07
3.89666e-07
3.89623e-07
3.89494e-07
3.89621e-07
5.59377e-07
5.5804e-07
3.89566e-07
3.89551e-07
3.89565e-07
5.579e-07
5.59365e-07
5.58032e-07
3.89616e-07
3.89657e-07
3.89615e-07
3.89656e-07
5.59308e-07
5.57967e-07
3.8956e-07
3.89667e-07
3.89559e-07
3.89666e-07
3.89623e-07
3.89494e-07
3.89621e-07
5.59376e-07
5.5804e-07
3.89567e-07
3.89551e-07
3.89565e-07
5.57894e-07
5.59366e-07
5.58032e-07
3.89616e-07
3.89658e-07
3.89615e-07
3.89656e-07
5.59308e-07
5.57966e-07
3.8956e-07
3.89667e-07
3.89559e-07
3.89666e-07
3.89623e-07
3.89494e-07
3.89621e-07
5.59375e-07
5.58042e-07
3.89567e-07
3.89552e-07
3.89564e-07
5.57901e-07
5.59367e-07
5.58032e-07
3.89617e-07
3.89658e-07
3.89615e-07
3.89656e-07
5.59307e-07
5.57966e-07
3.8956e-07
3.89668e-07
3.89558e-07
3.89666e-07
3.89623e-07
3.89494e-07
3.89621e-07
5.59376e-07
5.58042e-07
3.89567e-07
3.89552e-07
3.89564e-07
5.5791e-07
5.59368e-07
5.58031e-07
3.89617e-07
3.89658e-07
3.89615e-07
3.89656e-07
5.59306e-07
5.57967e-07
3.8956e-07
3.89668e-07
3.89558e-07
3.89666e-07
3.89623e-07
3.89494e-07
3.8962e-07
5.59377e-07
5.58043e-07
3.89566e-07
3.89551e-07
3.89564e-07
5.57906e-07
5.59367e-07
5.58029e-07
3.89617e-07
3.89658e-07
3.89615e-07
3.89656e-07
5.59306e-07
5.57967e-07
3.8956e-07
3.89668e-07
3.89558e-07
3.89666e-07
3.89623e-07
3.89494e-07
3.8962e-07
5.59378e-07
5.58043e-07
3.89566e-07
3.89551e-07
3.89563e-07
5.57909e-07
5.59365e-07
5.58029e-07
3.89617e-07
3.89658e-07
3.89615e-07
3.89656e-07
5.59305e-07
5.57969e-07
3.89561e-07
3.89668e-07
3.89558e-07
3.89665e-07
3.89623e-07
3.89494e-07
3.8962e-07
5.59379e-07
5.58041e-07
3.89567e-07
3.89551e-07
3.89563e-07
5.5791e-07
5.59365e-07
5.5803e-07
3.89617e-07
3.89658e-07
3.89614e-07
3.89655e-07
5.59306e-07
5.5797e-07
3.89561e-07
3.89668e-07
3.89557e-07
3.89665e-07
3.89624e-07
3.89493e-07
3.8962e-07
5.59378e-07
5.58039e-07
3.89567e-07
3.8955e-07
3.89563e-07
5.579e-07
5.59366e-07
5.5803e-07
3.89618e-07
3.89659e-07
3.89613e-07
3.89654e-07
5.59309e-07
5.57969e-07
3.89562e-07
3.89669e-07
3.89557e-07
3.89664e-07
3.89625e-07
3.89493e-07
3.89619e-07
5.59376e-07
5.58039e-07
3.89568e-07
3.8955e-07
3.89562e-07
5.57896e-07
5.59366e-07
5.5803e-07
3.89619e-07
3.8966e-07
3.89613e-07
3.89654e-07
5.5931e-07
5.57966e-07
3.89562e-07
3.8967e-07
3.89556e-07
3.89664e-07
3.89626e-07
3.89492e-07
3.89619e-07
5.59375e-07
5.58041e-07
3.89568e-07
3.89549e-07
3.89562e-07
5.57908e-07
5.59367e-07
5.58029e-07
3.8962e-07
3.89661e-07
3.89612e-07
3.89653e-07
5.59307e-07
5.57966e-07
3.89564e-07
3.89671e-07
3.89555e-07
3.89662e-07
3.89627e-07
3.89491e-07
3.89618e-07
5.59376e-07
5.5804e-07
3.8957e-07
3.89547e-07
3.8956e-07
5.5791e-07
5.59366e-07
5.58028e-07
3.89622e-07
3.89663e-07
3.8961e-07
3.89651e-07
5.59306e-07
5.57967e-07
3.89565e-07
3.89672e-07
3.89553e-07
3.89661e-07
3.89628e-07
3.89488e-07
3.89616e-07
5.59376e-07
5.58042e-07
3.89571e-07
3.89545e-07
3.89558e-07
5.57898e-07
5.59365e-07
5.58024e-07
3.89623e-07
3.89664e-07
3.89607e-07
3.89647e-07
5.59307e-07
5.57962e-07
3.89566e-07
3.89673e-07
3.8955e-07
3.89657e-07
3.8963e-07
3.89485e-07
3.89613e-07
5.59374e-07
5.5804e-07
3.89572e-07
3.89542e-07
3.89555e-07
5.57894e-07
5.59361e-07
5.58022e-07
3.89624e-07
3.89664e-07
3.89601e-07
3.89642e-07
5.59303e-07
5.5796e-07
3.89567e-07
3.89674e-07
3.89545e-07
3.89652e-07
3.8963e-07
3.89479e-07
3.89607e-07
5.59373e-07
5.58037e-07
3.89572e-07
3.89536e-07
3.89549e-07
5.57901e-07
5.59357e-07
5.58022e-07
3.89624e-07
3.89664e-07
3.89593e-07
3.89633e-07
5.59299e-07
5.57958e-07
3.89567e-07
3.89674e-07
3.89537e-07
3.89644e-07
3.8963e-07
3.8947e-07
3.89598e-07
5.59371e-07
5.5803e-07
3.89571e-07
3.89527e-07
3.8954e-07
5.57901e-07
5.59355e-07
5.58017e-07
3.89622e-07
3.89662e-07
3.89579e-07
3.89619e-07
5.59296e-07
5.57953e-07
3.89565e-07
3.89672e-07
3.89523e-07
3.8963e-07
3.89627e-07
3.89456e-07
3.89584e-07
5.59363e-07
5.58021e-07
3.89569e-07
3.89513e-07
3.89526e-07
5.57893e-07
5.59349e-07
5.58009e-07
3.89616e-07
3.89656e-07
3.89557e-07
3.89598e-07
5.59289e-07
5.57944e-07
3.8956e-07
3.89667e-07
3.89502e-07
3.89608e-07
3.89622e-07
3.89435e-07
3.89562e-07
5.59351e-07
5.58014e-07
3.89563e-07
3.89491e-07
3.89504e-07
5.57878e-07
5.59334e-07
5.57997e-07
3.89604e-07
3.89645e-07
3.8952e-07
3.89557e-07
5.59274e-07
5.57933e-07
3.89549e-07
3.89655e-07
3.89465e-07
3.89571e-07
3.89611e-07
3.89396e-07
3.89524e-07
5.59338e-07
5.58011e-07
3.89551e-07
3.89453e-07
3.89462e-07
5.5786e-07
5.59305e-07
5.57872e-07
3.89578e-07
3.89613e-07
3.89268e-07
3.89301e-07
5.59247e-07
5.5781e-07
3.89521e-07
3.89625e-07
3.89208e-07
3.89311e-07
3.89581e-07
3.89146e-07
3.89272e-07
5.59314e-07
5.57889e-07
3.89518e-07
3.89195e-07
3.89201e-07
5.57728e-07
5.59099e-07
5.4598e-07
3.89505e-07
3.89537e-07
3.78638e-07
3.7867e-07
5.59044e-07
5.45942e-07
3.89444e-07
3.89553e-07
3.78609e-07
3.7865e-07
3.89513e-07
3.78568e-07
3.78633e-07
5.5911e-07
5.4598e-07
3.89438e-07
3.78584e-07
3.78595e-07
5.45976e-07
5.31695e-07
3.68115e-07
3.68143e-07
5.31668e-07
3.68097e-07
3.68123e-07
2.08789e-07
2.08785e-07
2.08784e-07
3.6811e-07
5.31695e-07
3.68085e-07
1.39798e-07
3.18697e-08
1.01407e-07
1.01491e-07
9.48981e-10
9.77359e-09
2.89215e-08
6.57689e-08
9.88749e-10
7.53686e-09
6.50763e-08
1.40216e-08
6.55651e-09
9.58218e-09
3.95917e-09
6.56294e-09
1.68214e-07
4.70143e-09
2.63278e-07
1.57927e-06
3.05489e-06
6.26403e-09
1.79084e-07
5.07161e-09
2.78848e-07
6.37737e-08
6.27566e-08
6.31235e-08
6.40227e-08
6.39991e-08
6.29915e-08
6.33731e-08
9.68098e-10
1.06126e-07
3.20025e-08
1.48315e-08
9.66497e-10
8.5256e-08
3.18895e-08
1.68592e-06
3.28116e-06
9.92707e-10
3.07534e-08
9.01043e-08
9.59636e-09
9.92675e-10
3.05507e-08
6.90227e-08
2.12299e-07
2.15622e-07
6.07838e-09
1.79629e-07
1.85726e-07
1.46622e-08
4.70125e-07
1.09519e-08
6.96724e-07
7.03618e-06
1.00452e-05
1.44352e-08
5.04326e-07
1.12018e-08