/*--------------------------------*- C++ -*----------------------------------*\
| =========                 |                                                 |
| \\      /  F ield         | OpenFOAM: The Open Source CFD Toolbox           |
|  \\    /   O peration     | Version:  v1906                                 |
|   \\  /    A nd           | Web:      www.OpenFOAM.com                      |
|    \\/     M anipulation  |                                                 |
\*---------------------------------------------------------------------------*/
FoamFile
{
    version     2.0;
    format      ascii;
    class       volScalarField;
    location    "100";
    object      k;
}
// * * * * * * * * * * * * * * * * * * * * * * * * * * * * * * * * * * * * * //

dimensions      [0 2 -2 0 0 0 0];


internalField   nonuniform List<scalar> 
171728
(
5.78884e-06
9.44947e-07
8.13025e-07
3.92404e-07
5.87428e-06
1.02375e-06
8.62421e-07
3.96784e-07
6.08341e-06
1.14138e-06
9.51868e-07
4.02881e-07
6.28708e-06
1.27477e-06
1.0454e-06
4.02183e-07
6.4859e-06
1.42657e-06
1.16419e-06
4.16255e-07
6.68153e-06
1.58403e-06
1.30674e-06
4.50208e-07
6.87016e-06
1.73921e-06
1.47245e-06
4.97409e-07
7.05365e-06
1.80319e-06
1.65339e-06
5.53984e-07
7.22407e-06
1.90105e-06
1.86282e-06
6.33343e-07
7.40713e-06
2.11399e-06
2.108e-06
7.42689e-07
7.6159e-06
2.38528e-06
2.40425e-06
8.90757e-07
7.83047e-06
2.71849e-06
2.75281e-06
1.12569e-06
8.03639e-06
3.12187e-06
3.1481e-06
1.45796e-06
8.26404e-06
3.60251e-06
3.61907e-06
1.85229e-06
8.49596e-06
4.11366e-06
4.14605e-06
2.29502e-06
8.77053e-06
4.72055e-06
4.75801e-06
2.88145e-06
9.09639e-06
5.43138e-06
5.46962e-06
3.70285e-06
9.49601e-06
6.30456e-06
6.33448e-06
4.86678e-06
1.00131e-05
7.40236e-06
7.42296e-06
6.44066e-06
1.0639e-05
8.89113e-06
8.90008e-06
8.7738e-06
1.1505e-05
1.0998e-05
1.10123e-05
1.21053e-05
1.2707e-05
1.38078e-05
1.38171e-05
1.62815e-05
1.3985e-05
1.67371e-05
1.67407e-05
2.0074e-05
1.53035e-05
1.93511e-05
1.9353e-05
2.29469e-05
1.62896e-05
2.09484e-05
2.09499e-05
2.4501e-05
1.67392e-05
2.15297e-05
2.15312e-05
2.49621e-05
1.68723e-05
2.16726e-05
2.1674e-05
2.50642e-05
1.69014e-05
2.17009e-05
2.17024e-05
2.50866e-05
1.69066e-05
2.17056e-05
2.1707e-05
2.50902e-05
1.69074e-05
2.1706e-05
2.17074e-05
2.50885e-05
1.69077e-05
2.17064e-05
2.17078e-05
2.50898e-05
1.69079e-05
2.17065e-05
2.17079e-05
2.50894e-05
1.69082e-05
2.17067e-05
2.17081e-05
2.50899e-05
1.69084e-05
2.17069e-05
2.17083e-05
2.50899e-05
1.69085e-05
2.17071e-05
2.17085e-05
2.509e-05
1.69086e-05
2.17072e-05
2.17086e-05
2.50899e-05
1.69087e-05
2.17072e-05
2.17086e-05
2.50898e-05
1.69088e-05
2.17072e-05
2.17086e-05
2.50902e-05
1.69089e-05
2.17072e-05
2.17086e-05
2.50901e-05
1.69089e-05
2.17072e-05
2.17086e-05
2.50901e-05
1.6909e-05
2.17072e-05
2.17086e-05
2.50907e-05
1.6909e-05
2.17072e-05
2.17086e-05
2.5091e-05
1.69089e-05
2.17072e-05
2.17086e-05
2.50904e-05
1.69089e-05
2.17072e-05
2.17086e-05
2.50896e-05
1.69089e-05
2.17072e-05
2.17086e-05
2.5089e-05
1.69089e-05
2.17072e-05
2.17085e-05
2.50882e-05
1.69089e-05
2.17073e-05
2.17085e-05
2.50879e-05
1.69089e-05
2.17073e-05
2.17085e-05
2.50879e-05
1.69089e-05
2.17073e-05
2.17085e-05
2.50879e-05
1.69089e-05
2.17073e-05
2.17085e-05
2.5088e-05
1.69089e-05
2.17073e-05
2.17085e-05
2.5088e-05
1.69089e-05
2.17073e-05
2.17085e-05
2.50881e-05
1.6909e-05
2.17073e-05
2.17085e-05
2.50882e-05
1.6909e-05
2.17073e-05
2.17085e-05
2.50882e-05
1.6909e-05
2.17073e-05
2.17085e-05
2.50882e-05
1.6909e-05
2.17073e-05
2.17085e-05
2.50881e-05
1.6909e-05
2.17073e-05
2.17085e-05
2.50881e-05
1.6909e-05
2.17074e-05
2.17085e-05
2.50882e-05
1.6909e-05
2.17073e-05
2.17085e-05
2.50882e-05
1.6909e-05
2.17073e-05
2.17085e-05
2.5088e-05
1.6909e-05
2.17074e-05
2.17085e-05
2.50879e-05
1.6909e-05
2.17073e-05
2.17085e-05
2.5088e-05
1.69089e-05
2.17073e-05
2.17085e-05
2.50881e-05
1.69089e-05
2.17073e-05
2.17085e-05
2.50882e-05
1.69089e-05
2.17073e-05
2.17085e-05
2.5088e-05
1.69089e-05
2.17073e-05
2.17085e-05
2.5088e-05
1.69089e-05
2.17073e-05
2.17085e-05
2.50881e-05
1.69089e-05
2.17073e-05
2.17085e-05
2.50881e-05
1.69089e-05
2.17073e-05
2.17085e-05
2.50879e-05
1.69089e-05
2.17073e-05
2.17084e-05
2.50878e-05
1.69089e-05
2.17073e-05
2.17084e-05
2.50879e-05
1.69089e-05
2.17073e-05
2.17084e-05
2.5088e-05
1.6909e-05
2.17073e-05
2.17084e-05
2.50881e-05
1.6909e-05
2.17073e-05
2.17084e-05
2.50881e-05
1.6909e-05
2.17073e-05
2.17084e-05
2.50881e-05
1.6909e-05
2.17073e-05
2.17084e-05
2.50882e-05
1.6909e-05
2.17073e-05
2.17084e-05
2.50881e-05
1.6909e-05
2.17074e-05
2.17085e-05
2.50878e-05
1.6909e-05
2.17074e-05
2.17085e-05
2.50879e-05
1.6909e-05
2.17074e-05
2.17085e-05
2.50879e-05
1.6909e-05
2.17074e-05
2.17085e-05
2.50879e-05
1.69091e-05
2.17075e-05
2.17085e-05
2.50881e-05
1.69091e-05
2.17075e-05
2.17086e-05
2.50882e-05
1.69091e-05
2.17076e-05
2.17086e-05
2.5088e-05
1.69092e-05
2.17076e-05
2.17087e-05
2.5088e-05
1.69092e-05
2.17077e-05
2.17088e-05
2.50882e-05
1.69093e-05
2.17078e-05
2.17088e-05
2.50884e-05
1.69094e-05
2.17079e-05
2.17089e-05
2.50882e-05
1.69094e-05
2.1708e-05
2.17091e-05
2.5088e-05
1.69095e-05
2.17083e-05
2.17093e-05
2.50881e-05
1.69096e-05
2.17086e-05
2.17097e-05
2.50883e-05
1.69097e-05
2.17092e-05
2.17103e-05
2.50885e-05
1.69097e-05
2.171e-05
2.17111e-05
2.50883e-05
1.69053e-05
2.17071e-05
2.1708e-05
2.50842e-05
1.67631e-05
2.1154e-05
2.11539e-05
2.45472e-05
4.23073e-07
5.72051e-07
5.7458e-07
3.86452e-07
6.27744e-07
6.2907e-07
5.88911e-06
5.89008e-06
5.85049e-06
5.86365e-06
6.18952e-07
5.64848e-07
4.64069e-07
6.13563e-07
5.89421e-07
3.93105e-07
4.19466e-07
4.13232e-07
7.67467e-07
7.96625e-07
8.06781e-07
8.49324e-07
3.82371e-07
3.76733e-07
8.9161e-07
8.48162e-07
9.42273e-07
8.84357e-07
7.65155e-07
9.97251e-07
8.16094e-07
4.586e-07
4.30118e-07
7.91006e-07
8.44709e-07
8.26438e-07
3.98161e-07
4.10616e-07
4.14553e-07
8.27653e-07
8.76563e-07
8.98043e-07
9.61464e-07
3.73779e-07
3.86405e-07
9.6738e-07
9.03437e-07
1.04617e-06
9.65587e-07
8.41855e-07
1.11019e-06
9.21371e-07
4.21764e-07
4.08341e-07
8.45377e-07
9.34705e-07
9.03894e-07
4.05083e-07
4.12077e-07
4.26863e-07
9.21733e-07
9.90881e-07
1.00811e-06
1.07974e-06
3.84247e-07
4.14273e-07
1.07406e-06
9.89553e-07
1.16113e-06
1.06482e-06
9.49287e-07
1.2396e-06
1.03359e-06
4.02821e-07
3.94083e-07
9.26364e-07
1.01885e-06
1.00137e-06
4.05088e-07
4.24573e-07
4.47154e-07
1.03664e-06
1.11052e-06
1.1321e-06
1.21091e-06
4.12542e-07
4.52654e-07
1.19231e-06
1.09218e-06
1.28808e-06
1.17873e-06
1.06297e-06
1.38828e-06
1.15471e-06
3.87298e-07
3.89592e-07
1.0298e-06
1.13268e-06
1.12093e-06
4.18342e-07
4.44683e-07
4.83715e-07
1.16864e-06
1.24418e-06
1.28917e-06
1.34983e-06
4.50771e-07
5.00257e-07
1.32249e-06
1.20908e-06
1.43971e-06
1.3114e-06
1.1861e-06
1.54444e-06
1.29237e-06
3.8686e-07
4.20348e-07
1.1533e-06
1.27116e-06
1.2618e-06
4.5185e-07
4.8202e-07
5.40727e-07
1.33122e-06
1.38591e-06
1.46125e-06
1.50717e-06
4.98285e-07
5.48184e-07
1.4807e-06
1.34638e-06
1.61792e-06
1.46479e-06
1.32881e-06
1.70449e-06
1.445e-06
4.1844e-07
4.70928e-07
1.29996e-06
1.42892e-06
1.42148e-06
4.99087e-07
5.39369e-07
6.19032e-07
1.50739e-06
1.55021e-06
1.6574e-06
1.68648e-06
5.45203e-07
5.88329e-07
1.66548e-06
1.50558e-06
1.81108e-06
1.62994e-06
1.48778e-06
1.79689e-06
1.61912e-06
4.69468e-07
5.38945e-07
1.46576e-06
1.60476e-06
1.60457e-06
5.55501e-07
6.18842e-07
7.1612e-07
1.71245e-06
1.73717e-06
1.87663e-06
1.89689e-06
5.84939e-07
6.50136e-07
1.86762e-06
1.67789e-06
2.01672e-06
1.82933e-06
1.66807e-06
1.86196e-06
1.81363e-06
5.38157e-07
6.30013e-07
1.65369e-06
1.80856e-06
1.81048e-06
6.33776e-07
7.15429e-07
8.13072e-07
1.93509e-06
1.95746e-06
2.12622e-06
2.15958e-06
6.49389e-07
7.62831e-07
2.04855e-06
1.88557e-06
2.12724e-06
2.06329e-06
1.86683e-06
2.05516e-06
2.05163e-06
6.30172e-07
7.47231e-07
1.86723e-06
2.04421e-06
2.05608e-06
7.41717e-07
8.1312e-07
9.65209e-07
2.19196e-06
2.23239e-06
2.41835e-06
2.46632e-06
7.64872e-07
9.24288e-07
2.16207e-06
2.12076e-06
2.31035e-06
2.30941e-06
2.11629e-06
2.31314e-06
2.33e-06
7.48967e-07
9.01308e-07
2.1239e-06
2.32627e-06
2.34269e-06
8.8599e-07
9.7134e-07
1.19436e-06
2.5019e-06
2.54549e-06
2.76018e-06
2.76851e-06
9.297e-07
1.14285e-06
2.37466e-06
2.3791e-06
2.60276e-06
2.6068e-06
2.40883e-06
2.6303e-06
2.66584e-06
9.06726e-07
1.1238e-06
2.42152e-06
2.65818e-06
2.67976e-06
1.11302e-06
1.20562e-06
1.4922e-06
2.85433e-06
2.84119e-06
3.15092e-06
3.05994e-06
1.15312e-06
1.43246e-06
2.69319e-06
2.69742e-06
2.98313e-06
2.99519e-06
2.76251e-06
3.01318e-06
3.06771e-06
1.1356e-06
1.43632e-06
2.77736e-06
3.0478e-06
3.08713e-06
1.4391e-06
1.50852e-06
1.8681e-06
3.25049e-06
3.1424e-06
3.58586e-06
3.46289e-06
1.44961e-06
1.81559e-06
3.08476e-06
3.10055e-06
3.4403e-06
3.46194e-06
3.17306e-06
3.48637e-06
3.52822e-06
1.45468e-06
1.82595e-06
3.19472e-06
3.50086e-06
3.54945e-06
1.82996e-06
1.89086e-06
2.3083e-06
3.70015e-06
3.57889e-06
4.05334e-06
3.94464e-06
1.83877e-06
2.26703e-06
3.55959e-06
3.58182e-06
3.93316e-06
3.95556e-06
3.64617e-06
3.96965e-06
4.01109e-06
1.84917e-06
2.27649e-06
3.66749e-06
4.00118e-06
4.03622e-06
2.26509e-06
2.33815e-06
2.88694e-06
4.18957e-06
4.08271e-06
4.63591e-06
4.53235e-06
2.29871e-06
2.86343e-06
4.07634e-06
4.09763e-06
4.53057e-06
4.54865e-06
4.15169e-06
4.56859e-06
4.57431e-06
2.30824e-06
2.87469e-06
4.17689e-06
4.60261e-06
4.60918e-06
2.83601e-06
2.93474e-06
3.65203e-06
4.79164e-06
4.69108e-06
5.30561e-06
5.20954e-06
2.91127e-06
3.6259e-06
4.68825e-06
4.70522e-06
5.21008e-06
5.22475e-06
4.71821e-06
5.23325e-06
5.23488e-06
2.92322e-06
3.64459e-06
4.75437e-06
5.27406e-06
5.26257e-06
3.59229e-06
3.75858e-06
4.69372e-06
5.50037e-06
5.40602e-06
6.13784e-06
6.04714e-06
3.73136e-06
4.66408e-06
5.40848e-06
5.42339e-06
6.0507e-06
6.06448e-06
5.43912e-06
6.07671e-06
6.08725e-06
3.75169e-06
4.68539e-06
5.46439e-06
6.10734e-06
6.11156e-06
4.66924e-06
4.88925e-06
6.13993e-06
6.36671e-06
6.27887e-06
7.14428e-06
7.07967e-06
4.86099e-06
6.12254e-06
6.2812e-06
6.29448e-06
7.07705e-06
7.09103e-06
6.31537e-06
7.0934e-06
7.10145e-06
4.88208e-06
6.1399e-06
6.33939e-06
7.11825e-06
7.12213e-06
6.13692e-06
6.43899e-06
8.31529e-06
7.44749e-06
7.39194e-06
8.51066e-06
8.46988e-06
6.42465e-06
8.30931e-06
7.38804e-06
7.40231e-06
8.46628e-06
8.47808e-06
7.40916e-06
8.47994e-06
8.47676e-06
6.44125e-06
8.3169e-06
7.42868e-06
8.48916e-06
8.49239e-06
8.31938e-06
8.77308e-06
1.14728e-05
8.92045e-06
8.88203e-06
1.04088e-05
1.03818e-05
8.76636e-06
1.14603e-05
8.8793e-06
8.8903e-06
1.03812e-05
1.03922e-05
8.88672e-06
1.03885e-05
1.03827e-05
8.77204e-06
1.14726e-05
8.90066e-06
1.0402e-05
1.03909e-05
1.1462e-05
1.21158e-05
1.55557e-05
1.10154e-05
1.09937e-05
1.30869e-05
1.30785e-05
1.21041e-05
1.55512e-05
1.09934e-05
1.10044e-05
1.30781e-05
1.3087e-05
1.09938e-05
1.30793e-05
1.30773e-05
1.21188e-05
1.55648e-05
1.10003e-05
1.30905e-05
1.30798e-05
1.55513e-05
1.62851e-05
1.94668e-05
1.38138e-05
1.38084e-05
1.60101e-05
1.60093e-05
1.62816e-05
1.94658e-05
1.38079e-05
1.38155e-05
1.60081e-05
1.60128e-05
1.38071e-05
1.60077e-05
1.60082e-05
1.62935e-05
1.94706e-05
1.38088e-05
1.60121e-05
1.60082e-05
1.94665e-05
2.00742e-05
2.25148e-05
1.67396e-05
1.67394e-05
1.87745e-05
1.87749e-05
2.00734e-05
2.25139e-05
1.67381e-05
1.6742e-05
1.87733e-05
1.8776e-05
1.67385e-05
1.87726e-05
1.87747e-05
2.00773e-05
2.25162e-05
1.67382e-05
1.87748e-05
1.87738e-05
2.25156e-05
2.29463e-05
2.4292e-05
1.93531e-05
1.93536e-05
2.06627e-05
2.06631e-05
2.29454e-05
2.42908e-05
1.9352e-05
1.93544e-05
2.06617e-05
2.06634e-05
1.93536e-05
2.06609e-05
2.06633e-05
2.29473e-05
2.42922e-05
1.93527e-05
2.06624e-05
2.06625e-05
2.42927e-05
2.45005e-05
2.48961e-05
2.09504e-05
2.09508e-05
2.14485e-05
2.14487e-05
2.44993e-05
2.4895e-05
2.09493e-05
2.09509e-05
2.14474e-05
2.14487e-05
2.09511e-05
2.14466e-05
2.14494e-05
2.45005e-05
2.48963e-05
2.09503e-05
2.14481e-05
2.14486e-05
2.48974e-05
2.49609e-05
2.503e-05
2.15316e-05
2.15319e-05
2.16565e-05
2.16568e-05
2.49598e-05
2.50288e-05
2.15307e-05
2.15318e-05
2.16557e-05
2.16567e-05
2.15325e-05
2.16546e-05
2.16574e-05
2.49609e-05
2.50299e-05
2.15318e-05
2.16561e-05
2.16567e-05
2.5031e-05
2.50632e-05
2.50592e-05
2.16745e-05
2.16747e-05
2.16994e-05
2.16996e-05
2.5062e-05
2.50579e-05
2.16737e-05
2.16746e-05
2.16986e-05
2.16995e-05
2.16753e-05
2.16975e-05
2.17001e-05
2.5063e-05
2.50589e-05
2.16746e-05
2.16989e-05
2.16995e-05
2.506e-05
2.50858e-05
2.50652e-05
2.17029e-05
2.17031e-05
2.17072e-05
2.17074e-05
2.50846e-05
2.50638e-05
2.17021e-05
2.1703e-05
2.17064e-05
2.17073e-05
2.17035e-05
2.17052e-05
2.17077e-05
2.50855e-05
2.50649e-05
2.17029e-05
2.17066e-05
2.1707e-05
2.50658e-05
2.50897e-05
2.50631e-05
2.17075e-05
2.17077e-05
2.17079e-05
2.17081e-05
2.50883e-05
2.50618e-05
2.17068e-05
2.17076e-05
2.17072e-05
2.1708e-05
2.1708e-05
2.17059e-05
2.17083e-05
2.50893e-05
2.50629e-05
2.17073e-05
2.17074e-05
2.17076e-05
2.50636e-05
2.50881e-05
2.50645e-05
2.1708e-05
2.17082e-05
2.17082e-05
2.17085e-05
2.50868e-05
2.50632e-05
2.17073e-05
2.17081e-05
2.17076e-05
2.17084e-05
2.17084e-05
2.17063e-05
2.17086e-05
2.50878e-05
2.50643e-05
2.17077e-05
2.17077e-05
2.17079e-05
2.5065e-05
2.50893e-05
2.50641e-05
2.17083e-05
2.17086e-05
2.17084e-05
2.17087e-05
2.50881e-05
2.50628e-05
2.17077e-05
2.17085e-05
2.17078e-05
2.17086e-05
2.17087e-05
2.17065e-05
2.17088e-05
2.5089e-05
2.50639e-05
2.1708e-05
2.17079e-05
2.17081e-05
2.50646e-05
2.5089e-05
2.50646e-05
2.17084e-05
2.17087e-05
2.17086e-05
2.17089e-05
2.50877e-05
2.50632e-05
2.17078e-05
2.17086e-05
2.1708e-05
2.17088e-05
2.17089e-05
2.17067e-05
2.1709e-05
2.50887e-05
2.50644e-05
2.17082e-05
2.17081e-05
2.17083e-05
2.50651e-05
2.50894e-05
2.50646e-05
2.17086e-05
2.17089e-05
2.17088e-05
2.17092e-05
2.50881e-05
2.50633e-05
2.1708e-05
2.17088e-05
2.17083e-05
2.1709e-05
2.17091e-05
2.17069e-05
2.17093e-05
2.50891e-05
2.50644e-05
2.17084e-05
2.17083e-05
2.17085e-05
2.50651e-05
2.50894e-05
2.50647e-05
2.17088e-05
2.17092e-05
2.17089e-05
2.17094e-05
2.50882e-05
2.50635e-05
2.17083e-05
2.17091e-05
2.17085e-05
2.17092e-05
2.17093e-05
2.17071e-05
2.17094e-05
2.50892e-05
2.50646e-05
2.17085e-05
2.17085e-05
2.17086e-05
2.50652e-05
2.50895e-05
2.50647e-05
2.17089e-05
2.17094e-05
2.17089e-05
2.17094e-05
2.50883e-05
2.50635e-05
2.17085e-05
2.17092e-05
2.17085e-05
2.17093e-05
2.17094e-05
2.17072e-05
2.17094e-05
2.50893e-05
2.50646e-05
2.17086e-05
2.17086e-05
2.17087e-05
2.50651e-05
2.50895e-05
2.50647e-05
2.17089e-05
2.17095e-05
2.17089e-05
2.17094e-05
2.50884e-05
2.50634e-05
2.17086e-05
2.17093e-05
2.17086e-05
2.17093e-05
2.17094e-05
2.17072e-05
2.17094e-05
2.50894e-05
2.50646e-05
2.17087e-05
2.17086e-05
2.17087e-05
2.50651e-05
2.50896e-05
2.50646e-05
2.17089e-05
2.17094e-05
2.17089e-05
2.17094e-05
2.50884e-05
2.50633e-05
2.17086e-05
2.17093e-05
2.17086e-05
2.17093e-05
2.17094e-05
2.17072e-05
2.17095e-05
2.50894e-05
2.50645e-05
2.17087e-05
2.17086e-05
2.17087e-05
2.50654e-05
2.50894e-05
2.5065e-05
2.17089e-05
2.17094e-05
2.17089e-05
2.17095e-05
2.50881e-05
2.50638e-05
2.17086e-05
2.17093e-05
2.17086e-05
2.17093e-05
2.17094e-05
2.17073e-05
2.17095e-05
2.50891e-05
2.50649e-05
2.17087e-05
2.17086e-05
2.17087e-05
2.50652e-05
2.50896e-05
2.50652e-05
2.17089e-05
2.17094e-05
2.1709e-05
2.17095e-05
2.50886e-05
2.50637e-05
2.17086e-05
2.17093e-05
2.17087e-05
2.17093e-05
2.17095e-05
2.17072e-05
2.17095e-05
2.50895e-05
2.50648e-05
2.17087e-05
2.17086e-05
2.17087e-05
2.50653e-05
2.50902e-05
2.50646e-05
2.1709e-05
2.17095e-05
2.17089e-05
2.17094e-05
2.50889e-05
2.5063e-05
2.17087e-05
2.17093e-05
2.17086e-05
2.17093e-05
2.17095e-05
2.17072e-05
2.17095e-05
2.50898e-05
2.50641e-05
2.17087e-05
2.17086e-05
2.17087e-05
2.50658e-05
2.50898e-05
2.5064e-05
2.17089e-05
2.17095e-05
2.17089e-05
2.17094e-05
2.50883e-05
2.50628e-05
2.17087e-05
2.17093e-05
2.17087e-05
2.17093e-05
2.17095e-05
2.17072e-05
2.17095e-05
2.50892e-05
2.5064e-05
2.17087e-05
2.17086e-05
2.17087e-05
2.50654e-05
2.5089e-05
2.50643e-05
2.17089e-05
2.17094e-05
2.17088e-05
2.17094e-05
2.50876e-05
2.50633e-05
2.17087e-05
2.17093e-05
2.17087e-05
2.17093e-05
2.17095e-05
2.17072e-05
2.17095e-05
2.50887e-05
2.50644e-05
2.17087e-05
2.17086e-05
2.17087e-05
2.50644e-05
2.50888e-05
2.50649e-05
2.17088e-05
2.17094e-05
2.17088e-05
2.17094e-05
2.50878e-05
2.50638e-05
2.17087e-05
2.17093e-05
2.17087e-05
2.17093e-05
2.17095e-05
2.17072e-05
2.17095e-05
2.50889e-05
2.50647e-05
2.17087e-05
2.17086e-05
2.17087e-05
2.50637e-05
2.50893e-05
2.50652e-05
2.17089e-05
2.17094e-05
2.17089e-05
2.17094e-05
2.50883e-05
2.50638e-05
2.17087e-05
2.17093e-05
2.17087e-05
2.17093e-05
2.17095e-05
2.17072e-05
2.17094e-05
2.50892e-05
2.50647e-05
2.17087e-05
2.17086e-05
2.17087e-05
2.50631e-05
2.50897e-05
2.50651e-05
2.17089e-05
2.17094e-05
2.17089e-05
2.17094e-05
2.50884e-05
2.50636e-05
2.17087e-05
2.17093e-05
2.17087e-05
2.17093e-05
2.17095e-05
2.17072e-05
2.17094e-05
2.50893e-05
2.50645e-05
2.17087e-05
2.17085e-05
2.17087e-05
2.50625e-05
2.50897e-05
2.50649e-05
2.17089e-05
2.17094e-05
2.1709e-05
2.17095e-05
2.50884e-05
2.50635e-05
2.17087e-05
2.17093e-05
2.17086e-05
2.17093e-05
2.17095e-05
2.17073e-05
2.17094e-05
2.50891e-05
2.50645e-05
2.17087e-05
2.17085e-05
2.17087e-05
2.50624e-05
2.50896e-05
2.50649e-05
2.1709e-05
2.17095e-05
2.17091e-05
2.17095e-05
2.50883e-05
2.50634e-05
2.17086e-05
2.17093e-05
2.17086e-05
2.17093e-05
2.17095e-05
2.17073e-05
2.17095e-05
2.5089e-05
2.50646e-05
2.17087e-05
2.17085e-05
2.17087e-05
2.50624e-05
2.50895e-05
2.5065e-05
2.17091e-05
2.17095e-05
2.17091e-05
2.17095e-05
2.50881e-05
2.50635e-05
2.17086e-05
2.17093e-05
2.17086e-05
2.17093e-05
2.17095e-05
2.17072e-05
2.17095e-05
2.50891e-05
2.50646e-05
2.17087e-05
2.17085e-05
2.17087e-05
2.50622e-05
2.50895e-05
2.50651e-05
2.17091e-05
2.17095e-05
2.17092e-05
2.17095e-05
2.50881e-05
2.50636e-05
2.17086e-05
2.17093e-05
2.17085e-05
2.17093e-05
2.17095e-05
2.17072e-05
2.17095e-05
2.50891e-05
2.50646e-05
2.17087e-05
2.17085e-05
2.17087e-05
2.50621e-05
2.50896e-05
2.5065e-05
2.17092e-05
2.17095e-05
2.17092e-05
2.17095e-05
2.50881e-05
2.50637e-05
2.17086e-05
2.17093e-05
2.17085e-05
2.17093e-05
2.17095e-05
2.17073e-05
2.17094e-05
2.50891e-05
2.50646e-05
2.17087e-05
2.17085e-05
2.17087e-05
2.50621e-05
2.50896e-05
2.5065e-05
2.17093e-05
2.17095e-05
2.17093e-05
2.17095e-05
2.50882e-05
2.50638e-05
2.17085e-05
2.17093e-05
2.17085e-05
2.17093e-05
2.17095e-05
2.17073e-05
2.17094e-05
2.50891e-05
2.50646e-05
2.17087e-05
2.17085e-05
2.17087e-05
2.50621e-05
2.50895e-05
2.50652e-05
2.17093e-05
2.17095e-05
2.17093e-05
2.17095e-05
2.50883e-05
2.50639e-05
2.17085e-05
2.17093e-05
2.17085e-05
2.17093e-05
2.17094e-05
2.17073e-05
2.17094e-05
2.50891e-05
2.50647e-05
2.17087e-05
2.17085e-05
2.17087e-05
2.50621e-05
2.50897e-05
2.50652e-05
2.17093e-05
2.17095e-05
2.17094e-05
2.17095e-05
2.50884e-05
2.50638e-05
2.17085e-05
2.17093e-05
2.17085e-05
2.17093e-05
2.17095e-05
2.17073e-05
2.17094e-05
2.50892e-05
2.50647e-05
2.17087e-05
2.17085e-05
2.17086e-05
2.50621e-05
2.50897e-05
2.50651e-05
2.17094e-05
2.17095e-05
2.17094e-05
2.17095e-05
2.50884e-05
2.50637e-05
2.17085e-05
2.17093e-05
2.17085e-05
2.17093e-05
2.17094e-05
2.17073e-05
2.17094e-05
2.50892e-05
2.50646e-05
2.17087e-05
2.17085e-05
2.17086e-05
2.50621e-05
2.50896e-05
2.50651e-05
2.17094e-05
2.17095e-05
2.17094e-05
2.17095e-05
2.50883e-05
2.50637e-05
2.17085e-05
2.17093e-05
2.17085e-05
2.17093e-05
2.17094e-05
2.17073e-05
2.17094e-05
2.50891e-05
2.50647e-05
2.17086e-05
2.17085e-05
2.17086e-05
2.50621e-05
2.50896e-05
2.50651e-05
2.17094e-05
2.17095e-05
2.17095e-05
2.17095e-05
2.50883e-05
2.50638e-05
2.17085e-05
2.17093e-05
2.17085e-05
2.17093e-05
2.17094e-05
2.17073e-05
2.17094e-05
2.50891e-05
2.50648e-05
2.17086e-05
2.17085e-05
2.17086e-05
2.50621e-05
2.50896e-05
2.50652e-05
2.17095e-05
2.17095e-05
2.17095e-05
2.17095e-05
2.50883e-05
2.50638e-05
2.17085e-05
2.17093e-05
2.17085e-05
2.17093e-05
2.17095e-05
2.17073e-05
2.17094e-05
2.50892e-05
2.50648e-05
2.17086e-05
2.17085e-05
2.17086e-05
2.50621e-05
2.50896e-05
2.50652e-05
2.17095e-05
2.17095e-05
2.17095e-05
2.17095e-05
2.50884e-05
2.50637e-05
2.17085e-05
2.17093e-05
2.17085e-05
2.17093e-05
2.17095e-05
2.17073e-05
2.17094e-05
2.50892e-05
2.50647e-05
2.17086e-05
2.17085e-05
2.17086e-05
2.50621e-05
2.50896e-05
2.50653e-05
2.17095e-05
2.17095e-05
2.17095e-05
2.17095e-05
2.50883e-05
2.50638e-05
2.17085e-05
2.17093e-05
2.17085e-05
2.17093e-05
2.17095e-05
2.17073e-05
2.17095e-05
2.50892e-05
2.50646e-05
2.17086e-05
2.17085e-05
2.17085e-05
2.5062e-05
2.50897e-05
2.50653e-05
2.17095e-05
2.17095e-05
2.17095e-05
2.17095e-05
2.50883e-05
2.50638e-05
2.17085e-05
2.17093e-05
2.17085e-05
2.17093e-05
2.17095e-05
2.17073e-05
2.17095e-05
2.50892e-05
2.50646e-05
2.17086e-05
2.17085e-05
2.17085e-05
2.50621e-05
2.50897e-05
2.50653e-05
2.17095e-05
2.17095e-05
2.17095e-05
2.17095e-05
2.50884e-05
2.50637e-05
2.17085e-05
2.17093e-05
2.17084e-05
2.17093e-05
2.17095e-05
2.17073e-05
2.17094e-05
2.50891e-05
2.50646e-05
2.17085e-05
2.17085e-05
2.17085e-05
2.50622e-05
2.50897e-05
2.50652e-05
2.17095e-05
2.17095e-05
2.17095e-05
2.17095e-05
2.50883e-05
2.50637e-05
2.17085e-05
2.17093e-05
2.17084e-05
2.17093e-05
2.17095e-05
2.17073e-05
2.17094e-05
2.50891e-05
2.50646e-05
2.17085e-05
2.17085e-05
2.17085e-05
2.50621e-05
2.50897e-05
2.50651e-05
2.17095e-05
2.17095e-05
2.17094e-05
2.17095e-05
2.50882e-05
2.50638e-05
2.17084e-05
2.17093e-05
2.17084e-05
2.17093e-05
2.17095e-05
2.17073e-05
2.17094e-05
2.50891e-05
2.50647e-05
2.17085e-05
2.17085e-05
2.17085e-05
2.50621e-05
2.50896e-05
2.50651e-05
2.17094e-05
2.17095e-05
2.17094e-05
2.17095e-05
2.50883e-05
2.50639e-05
2.17084e-05
2.17093e-05
2.17084e-05
2.17093e-05
2.17094e-05
2.17073e-05
2.17094e-05
2.50891e-05
2.50646e-05
2.17085e-05
2.17085e-05
2.17084e-05
2.5062e-05
2.50895e-05
2.50651e-05
2.17094e-05
2.17095e-05
2.17094e-05
2.17095e-05
2.50884e-05
2.50638e-05
2.17084e-05
2.17093e-05
2.17084e-05
2.17093e-05
2.17094e-05
2.17073e-05
2.17094e-05
2.50891e-05
2.50646e-05
2.17084e-05
2.17085e-05
2.17084e-05
2.5062e-05
2.50895e-05
2.50651e-05
2.17094e-05
2.17095e-05
2.17094e-05
2.17095e-05
2.50884e-05
2.50637e-05
2.17084e-05
2.17093e-05
2.17083e-05
2.17093e-05
2.17094e-05
2.17073e-05
2.17094e-05
2.50891e-05
2.50647e-05
2.17084e-05
2.17085e-05
2.17084e-05
2.50621e-05
2.50896e-05
2.50652e-05
2.17094e-05
2.17095e-05
2.17094e-05
2.17095e-05
2.50883e-05
2.50637e-05
2.17084e-05
2.17093e-05
2.17083e-05
2.17093e-05
2.17094e-05
2.17073e-05
2.17094e-05
2.50891e-05
2.50648e-05
2.17085e-05
2.17085e-05
2.17085e-05
2.5062e-05
2.50896e-05
2.50652e-05
2.17094e-05
2.17095e-05
2.17094e-05
2.17095e-05
2.50882e-05
2.50638e-05
2.17083e-05
2.17093e-05
2.17083e-05
2.17093e-05
2.17094e-05
2.17073e-05
2.17094e-05
2.50892e-05
2.50647e-05
2.17085e-05
2.17085e-05
2.17084e-05
2.5062e-05
2.50896e-05
2.50652e-05
2.17094e-05
2.17095e-05
2.17094e-05
2.17095e-05
2.50883e-05
2.50637e-05
2.17084e-05
2.17093e-05
2.17084e-05
2.17093e-05
2.17094e-05
2.17073e-05
2.17094e-05
2.50893e-05
2.50646e-05
2.17085e-05
2.17084e-05
2.17084e-05
2.5062e-05
2.50897e-05
2.50651e-05
2.17094e-05
2.17095e-05
2.17094e-05
2.17094e-05
2.50883e-05
2.50637e-05
2.17084e-05
2.17093e-05
2.17084e-05
2.17093e-05
2.17094e-05
2.17073e-05
2.17094e-05
2.50891e-05
2.50646e-05
2.17085e-05
2.17084e-05
2.17085e-05
2.50621e-05
2.50896e-05
2.50651e-05
2.17095e-05
2.17095e-05
2.17094e-05
2.17094e-05
2.50883e-05
2.50637e-05
2.17084e-05
2.17093e-05
2.17084e-05
2.17093e-05
2.17095e-05
2.17073e-05
2.17094e-05
2.5089e-05
2.50646e-05
2.17085e-05
2.17084e-05
2.17084e-05
2.50621e-05
2.50896e-05
2.50651e-05
2.17095e-05
2.17095e-05
2.17094e-05
2.17094e-05
2.50883e-05
2.50637e-05
2.17084e-05
2.17093e-05
2.17083e-05
2.17093e-05
2.17095e-05
2.17073e-05
2.17094e-05
2.50891e-05
2.50647e-05
2.17085e-05
2.17084e-05
2.17084e-05
2.50621e-05
2.50895e-05
2.50651e-05
2.17095e-05
2.17095e-05
2.17094e-05
2.17094e-05
2.50882e-05
2.50637e-05
2.17084e-05
2.17093e-05
2.17083e-05
2.17093e-05
2.17094e-05
2.17073e-05
2.17094e-05
2.50891e-05
2.50647e-05
2.17085e-05
2.17084e-05
2.17084e-05
2.5062e-05
2.50896e-05
2.50652e-05
2.17095e-05
2.17095e-05
2.17094e-05
2.17094e-05
2.50882e-05
2.50638e-05
2.17084e-05
2.17093e-05
2.17083e-05
2.17093e-05
2.17094e-05
2.17073e-05
2.17094e-05
2.50891e-05
2.50647e-05
2.17085e-05
2.17084e-05
2.17084e-05
2.50621e-05
2.50896e-05
2.50652e-05
2.17095e-05
2.17095e-05
2.17094e-05
2.17094e-05
2.50883e-05
2.50638e-05
2.17084e-05
2.17093e-05
2.17083e-05
2.17092e-05
2.17094e-05
2.17073e-05
2.17094e-05
2.50891e-05
2.50646e-05
2.17085e-05
2.17084e-05
2.17084e-05
2.50621e-05
2.50896e-05
2.50652e-05
2.17095e-05
2.17095e-05
2.17094e-05
2.17094e-05
2.50883e-05
2.50638e-05
2.17084e-05
2.17093e-05
2.17084e-05
2.17092e-05
2.17094e-05
2.17073e-05
2.17094e-05
2.50891e-05
2.50646e-05
2.17085e-05
2.17084e-05
2.17084e-05
2.5062e-05
2.50896e-05
2.50652e-05
2.17094e-05
2.17095e-05
2.17094e-05
2.17094e-05
2.50883e-05
2.50637e-05
2.17084e-05
2.17093e-05
2.17084e-05
2.17093e-05
2.17094e-05
2.17073e-05
2.17094e-05
2.50891e-05
2.50647e-05
2.17085e-05
2.17084e-05
2.17084e-05
2.5062e-05
2.50896e-05
2.50652e-05
2.17095e-05
2.17095e-05
2.17094e-05
2.17094e-05
2.50883e-05
2.50637e-05
2.17084e-05
2.17093e-05
2.17083e-05
2.17093e-05
2.17094e-05
2.17073e-05
2.17094e-05
2.50891e-05
2.50647e-05
2.17085e-05
2.17084e-05
2.17084e-05
2.50622e-05
2.50897e-05
2.50652e-05
2.17095e-05
2.17095e-05
2.17094e-05
2.17094e-05
2.50883e-05
2.50637e-05
2.17084e-05
2.17093e-05
2.17084e-05
2.17093e-05
2.17095e-05
2.17073e-05
2.17094e-05
2.50892e-05
2.50647e-05
2.17085e-05
2.17084e-05
2.17084e-05
2.5062e-05
2.50897e-05
2.50652e-05
2.17095e-05
2.17095e-05
2.17094e-05
2.17095e-05
2.50883e-05
2.50638e-05
2.17084e-05
2.17093e-05
2.17084e-05
2.17093e-05
2.17095e-05
2.17073e-05
2.17094e-05
2.50892e-05
2.50647e-05
2.17085e-05
2.17084e-05
2.17084e-05
2.50621e-05
2.50897e-05
2.50652e-05
2.17095e-05
2.17096e-05
2.17095e-05
2.17095e-05
2.50883e-05
2.50638e-05
2.17085e-05
2.17094e-05
2.17084e-05
2.17093e-05
2.17095e-05
2.17073e-05
2.17094e-05
2.50892e-05
2.50647e-05
2.17086e-05
2.17084e-05
2.17085e-05
2.50621e-05
2.50896e-05
2.50652e-05
2.17096e-05
2.17096e-05
2.17095e-05
2.17095e-05
2.50883e-05
2.50639e-05
2.17085e-05
2.17094e-05
2.17084e-05
2.17093e-05
2.17096e-05
2.17073e-05
2.17094e-05
2.50892e-05
2.50646e-05
2.17086e-05
2.17084e-05
2.17085e-05
2.50621e-05
2.50897e-05
2.50652e-05
2.17096e-05
2.17096e-05
2.17095e-05
2.17095e-05
2.50884e-05
2.50639e-05
2.17086e-05
2.17095e-05
2.17084e-05
2.17093e-05
2.17096e-05
2.17073e-05
2.17094e-05
2.50891e-05
2.50646e-05
2.17087e-05
2.17084e-05
2.17085e-05
2.5062e-05
2.50897e-05
2.50652e-05
2.17097e-05
2.17097e-05
2.17095e-05
2.17095e-05
2.50885e-05
2.50638e-05
2.17086e-05
2.17095e-05
2.17084e-05
2.17093e-05
2.17097e-05
2.17073e-05
2.17094e-05
2.50891e-05
2.50647e-05
2.17087e-05
2.17084e-05
2.17084e-05
2.50622e-05
2.50897e-05
2.50652e-05
2.17098e-05
2.17098e-05
2.17094e-05
2.17095e-05
2.50884e-05
2.50638e-05
2.17087e-05
2.17096e-05
2.17084e-05
2.17093e-05
2.17098e-05
2.17073e-05
2.17094e-05
2.50892e-05
2.50647e-05
2.17088e-05
2.17083e-05
2.17084e-05
2.50623e-05
2.50897e-05
2.50652e-05
2.17099e-05
2.17099e-05
2.17094e-05
2.17094e-05
2.50884e-05
2.50638e-05
2.17088e-05
2.17097e-05
2.17084e-05
2.17092e-05
2.17099e-05
2.17072e-05
2.17094e-05
2.50892e-05
2.50648e-05
2.17089e-05
2.17083e-05
2.17084e-05
2.50622e-05
2.50897e-05
2.50651e-05
2.171e-05
2.171e-05
2.17094e-05
2.17094e-05
2.50884e-05
2.50638e-05
2.17089e-05
2.17098e-05
2.17083e-05
2.17092e-05
2.171e-05
2.17072e-05
2.17094e-05
2.50892e-05
2.50648e-05
2.17089e-05
2.17083e-05
2.17084e-05
2.50621e-05
2.50897e-05
2.50651e-05
2.17101e-05
2.17101e-05
2.17094e-05
2.17093e-05
2.50884e-05
2.50637e-05
2.1709e-05
2.17099e-05
2.17083e-05
2.17092e-05
2.17101e-05
2.17071e-05
2.17093e-05
2.50892e-05
2.50648e-05
2.1709e-05
2.17082e-05
2.17083e-05
2.50622e-05
2.50896e-05
2.50653e-05
2.17103e-05
2.17102e-05
2.17093e-05
2.17093e-05
2.50883e-05
2.50638e-05
2.17092e-05
2.17101e-05
2.17083e-05
2.17091e-05
2.17102e-05
2.17071e-05
2.17093e-05
2.50893e-05
2.50647e-05
2.17092e-05
2.17081e-05
2.17082e-05
2.50623e-05
2.50897e-05
2.50654e-05
2.17105e-05
2.17105e-05
2.17093e-05
2.17093e-05
2.50884e-05
2.5064e-05
2.17095e-05
2.17103e-05
2.17083e-05
2.17091e-05
2.17104e-05
2.1707e-05
2.17092e-05
2.50893e-05
2.50647e-05
2.17094e-05
2.17081e-05
2.17082e-05
2.50623e-05
2.50898e-05
2.50656e-05
2.17109e-05
2.17108e-05
2.17094e-05
2.17094e-05
2.50885e-05
2.50642e-05
2.17098e-05
2.17107e-05
2.17084e-05
2.17092e-05
2.17108e-05
2.17072e-05
2.17093e-05
2.50892e-05
2.50649e-05
2.17097e-05
2.17082e-05
2.17083e-05
2.50625e-05
2.509e-05
2.5066e-05
2.17114e-05
2.17114e-05
2.17096e-05
2.17096e-05
2.50886e-05
2.50646e-05
2.17104e-05
2.17113e-05
2.17087e-05
2.17095e-05
2.17114e-05
2.17074e-05
2.17095e-05
2.50893e-05
2.50655e-05
2.17103e-05
2.17085e-05
2.17085e-05
2.50628e-05
2.509e-05
2.50644e-05
2.17123e-05
2.17122e-05
2.17055e-05
2.17055e-05
2.50887e-05
2.5063e-05
2.17113e-05
2.17121e-05
2.17045e-05
2.17053e-05
2.17122e-05
2.17034e-05
2.17054e-05
2.50894e-05
2.5064e-05
2.17111e-05
2.17043e-05
2.17043e-05
2.5061e-05
2.50863e-05
2.4832e-05
2.17093e-05
2.17092e-05
2.14588e-05
2.14587e-05
2.50851e-05
2.48311e-05
2.17082e-05
2.17091e-05
2.14586e-05
2.14578e-05
2.17092e-05
2.1458e-05
2.14584e-05
2.50858e-05
2.48313e-05
2.1708e-05
2.14581e-05
2.14581e-05
2.48316e-05
2.45472e-05
2.11544e-05
2.11543e-05
2.45465e-05
2.11544e-05
2.11534e-05
1.67627e-05
1.67624e-05
1.67625e-05
2.1154e-05
2.45465e-05
2.11539e-05
1.24693e-05
3.0715e-06
8.98397e-06
8.98377e-06
7.668e-08
6.44522e-07
8.2341e-07
5.94166e-06
7.82302e-08
6.3324e-07
5.91416e-06
5.47835e-07
3.97033e-07
3.34671e-07
2.66623e-07
2.70585e-07
5.0446e-06
2.19588e-07
6.70342e-06
1.37735e-05
2.09917e-05
2.64992e-07
5.26116e-06
2.2592e-07
6.96395e-06
5.79046e-06
5.74875e-06
5.76219e-06
5.82345e-06
5.82293e-06
5.78313e-06
5.79682e-06
7.92153e-08
1.08182e-06
2.90266e-06
9.51681e-07
7.88071e-08
1.06422e-06
2.89655e-06
1.44254e-05
2.20152e-05
7.71656e-08
2.92483e-06
7.94832e-07
8.18099e-07
7.78166e-08
2.91229e-06
7.63364e-07
1.77657e-06
1.91399e-06
3.94125e-07
1.75677e-06
1.89385e-06
4.43589e-07
9.86451e-06
3.72451e-07
1.28096e-05
3.65862e-05
4.64022e-05
4.38238e-07
1.0337e-05
3.74974e-07