/*--------------------------------*- C++ -*----------------------------------*\
| =========                 |                                                 |
| \\      /  F ield         | OpenFOAM: The Open Source CFD Toolbox           |
|  \\    /   O peration     | Version:  v1906                                 |
|   \\  /    A nd           | Web:      www.OpenFOAM.com                      |
|    \\/     M anipulation  |                                                 |
\*---------------------------------------------------------------------------*/
FoamFile
{
    version     2.0;
    format      ascii;
    class       volScalarField;
    location    "100";
    object      nut;
}
// * * * * * * * * * * * * * * * * * * * * * * * * * * * * * * * * * * * * * //

dimensions      [0 2 -1 0 0 0 0];


internalField   nonuniform List<scalar> 
171728
(
4.72902e-05
5.45702e-06
6.22269e-06
2.22677e-06
4.81056e-05
6.02337e-06
6.75851e-06
2.4411e-06
4.98449e-05
6.93729e-06
7.80435e-06
2.64235e-06
5.15178e-05
8.05904e-06
8.69303e-06
2.72615e-06
5.3126e-05
9.55632e-06
9.85992e-06
2.9357e-06
5.46972e-05
1.14169e-05
1.1246e-05
3.31763e-06
5.62249e-05
1.39582e-05
1.28185e-05
3.81688e-06
5.76836e-05
1.54403e-05
1.4479e-05
4.378e-06
5.9104e-05
1.69813e-05
1.63403e-05
5.13397e-06
6.06319e-05
1.8864e-05
1.84779e-05
6.13983e-06
6.23106e-05
2.12016e-05
2.09942e-05
7.47357e-06
6.40165e-05
2.39565e-05
2.38863e-05
9.56649e-06
6.56861e-05
2.72061e-05
2.70443e-05
1.23686e-05
6.74329e-05
3.08942e-05
3.0738e-05
1.53775e-05
6.92417e-05
3.44824e-05
3.4658e-05
1.85782e-05
7.14432e-05
3.86996e-05
3.88665e-05
2.25474e-05
7.40217e-05
4.33447e-05
4.34741e-05
2.75212e-05
7.71178e-05
4.85484e-05
4.86273e-05
3.35589e-05
8.10473e-05
5.43215e-05
5.44393e-05
3.97848e-05
8.53843e-05
6.03955e-05
6.04171e-05
4.71944e-05
9.06829e-05
6.74259e-05
6.74674e-05
5.67979e-05
9.73523e-05
7.66927e-05
7.67336e-05
6.96475e-05
0.000103675
8.70504e-05
8.70642e-05
8.18373e-05
0.000110675
9.7654e-05
9.76557e-05
9.21724e-05
0.000116482
0.000104981
0.000104979
9.86138e-05
0.000119339
0.00010791
0.000107909
0.000100655
0.000120229
0.000108685
0.000108683
0.000101148
0.000120428
0.000108845
0.000108842
0.000101255
0.000120462
0.000108871
0.000108869
0.000101283
0.000120467
0.000108873
0.000108871
0.000101272
0.000120468
0.000108875
0.000108873
0.000101278
0.000120469
0.000108875
0.000108873
0.000101276
0.00012047
0.000108876
0.000108874
0.000101278
0.000120472
0.000108877
0.000108875
0.000101278
0.000120472
0.000108879
0.000108877
0.000101279
0.000120473
0.000108879
0.000108877
0.000101279
0.000120473
0.000108879
0.000108877
0.000101278
0.000120474
0.000108879
0.000108877
0.000101279
0.000120475
0.000108879
0.000108877
0.000101279
0.000120476
0.000108879
0.000108877
0.000101278
0.000120476
0.000108879
0.000108877
0.00010128
0.000120476
0.00010888
0.000108877
0.000101281
0.000120475
0.00010888
0.000108877
0.00010128
0.000120475
0.00010888
0.000108877
0.000101279
0.000120475
0.00010888
0.000108876
0.000101278
0.000120475
0.000108881
0.000108877
0.000101278
0.000120475
0.000108881
0.000108876
0.000101279
0.000120475
0.000108881
0.000108876
0.00010128
0.000120475
0.000108881
0.000108877
0.000101282
0.000120475
0.000108881
0.000108876
0.000101283
0.000120475
0.000108881
0.000108876
0.000101284
0.000120475
0.000108881
0.000108876
0.000101284
0.000120476
0.000108881
0.000108876
0.000101285
0.000120476
0.000108881
0.000108877
0.000101285
0.000120476
0.000108881
0.000108877
0.000101285
0.000120476
0.000108881
0.000108877
0.000101285
0.000120476
0.000108881
0.000108877
0.000101284
0.000120476
0.000108881
0.000108877
0.000101285
0.000120476
0.000108881
0.000108877
0.000101286
0.000120476
0.000108881
0.000108876
0.000101285
0.000120476
0.000108881
0.000108876
0.000101284
0.000120476
0.000108881
0.000108877
0.000101283
0.000120475
0.000108881
0.000108877
0.000101284
0.000120475
0.000108881
0.000108876
0.000101285
0.000120475
0.000108881
0.000108877
0.000101285
0.000120475
0.000108881
0.000108877
0.000101284
0.000120475
0.000108881
0.000108877
0.000101284
0.000120475
0.000108881
0.000108877
0.000101285
0.000120476
0.000108881
0.000108876
0.000101285
0.000120476
0.000108881
0.000108876
0.000101283
0.000120475
0.000108881
0.000108876
0.000101283
0.000120475
0.000108881
0.000108876
0.000101283
0.000120476
0.000108881
0.000108876
0.000101284
0.000120475
0.000108881
0.000108876
0.000101285
0.000120475
0.000108881
0.000108876
0.000101284
0.000120475
0.000108881
0.000108876
0.000101285
0.000120475
0.000108881
0.000108876
0.000101286
0.000120475
0.000108881
0.000108876
0.000101284
0.000120475
0.000108881
0.000108876
0.000101283
0.000120475
0.000108882
0.000108877
0.000101284
0.000120475
0.000108882
0.000108877
0.000101283
0.000120475
0.000108882
0.000108877
0.000101283
0.000120476
0.000108882
0.000108877
0.000101285
0.000120476
0.000108883
0.000108877
0.000101285
0.000120476
0.000108883
0.000108878
0.000101284
0.000120476
0.000108883
0.000108878
0.000101284
0.000120476
0.000108884
0.000108879
0.000101287
0.000120477
0.000108885
0.00010888
0.000101287
0.000120477
0.000108886
0.000108881
0.000101286
0.000120477
0.000108889
0.000108884
0.000101286
0.000120478
0.000108894
0.000108889
0.000101289
0.000120479
0.000108904
0.000108898
0.000101294
0.000120481
0.00010892
0.000108915
0.000101299
0.000120478
0.000108911
0.000108905
0.000101305
0.000121125
0.000109421
0.000109418
0.000101993
2.3959e-06
3.92992e-06
3.74338e-06
2.23652e-06
3.85935e-06
4.58818e-06
4.79673e-05
4.8009e-05
4.80461e-05
4.79867e-05
3.6169e-06
3.83013e-06
3.0502e-06
4.60634e-06
4.42448e-06
2.20786e-06
2.38873e-06
2.45138e-06
5.6504e-06
5.44515e-06
6.06619e-06
5.9438e-06
2.21709e-06
2.20397e-06
5.53103e-06
6.23812e-06
5.95873e-06
6.65175e-06
5.47635e-06
5.82489e-06
6.02591e-06
3.02766e-06
2.88186e-06
6.19583e-06
6.55607e-06
6.58404e-06
2.42551e-06
2.45133e-06
2.55045e-06
6.28875e-06
6.21328e-06
7.01511e-06
7.0614e-06
2.18672e-06
2.2926e-06
6.17171e-06
6.86946e-06
6.81963e-06
7.57598e-06
6.30872e-06
6.68852e-06
7.18356e-06
2.82794e-06
2.78839e-06
6.78734e-06
7.62945e-06
7.37135e-06
2.63911e-06
2.54159e-06
2.70895e-06
7.2574e-06
7.34938e-06
8.12264e-06
8.19856e-06
2.2819e-06
2.55087e-06
7.04488e-06
7.84868e-06
7.73384e-06
8.71429e-06
7.48534e-06
7.74747e-06
8.3708e-06
2.75235e-06
2.73654e-06
7.59073e-06
8.42764e-06
8.31491e-06
2.73989e-06
2.69536e-06
2.91416e-06
8.4094e-06
8.49029e-06
9.34114e-06
9.43086e-06
2.54553e-06
2.93282e-06
7.97815e-06
9.0276e-06
8.73274e-06
1.00045e-05
8.6765e-06
9.15773e-06
9.5977e-06
2.69208e-06
2.78462e-06
8.58978e-06
9.54606e-06
9.45005e-06
2.94954e-06
2.89835e-06
3.25215e-06
9.69448e-06
9.73786e-06
1.0854e-05
1.06888e-05
2.92759e-06
3.45538e-06
9.00735e-06
1.0344e-05
9.97117e-06
1.1448e-05
9.90903e-06
1.09031e-05
1.09457e-05
2.7685e-06
3.14848e-06
9.75597e-06
1.08943e-05
1.07674e-05
3.32872e-06
3.24233e-06
3.79867e-06
1.12603e-05
1.10046e-05
1.24895e-05
1.2061e-05
3.45191e-06
4.075e-06
1.03186e-05
1.18235e-05
1.15678e-05
1.30508e-05
1.12981e-05
1.32532e-05
1.23862e-05
3.1333e-06
3.68415e-06
1.11173e-05
1.24053e-05
1.22225e-05
3.8307e-06
3.79381e-06
4.61447e-06
1.2923e-05
1.24385e-05
1.43176e-05
1.36053e-05
4.0642e-06
4.67335e-06
1.20152e-05
1.34615e-05
1.34769e-05
1.46233e-05
1.27786e-05
1.52926e-05
1.396e-05
3.6715e-06
4.37693e-06
1.26238e-05
1.40352e-05
1.38607e-05
4.39332e-06
4.62433e-06
5.73991e-06
1.48224e-05
1.40368e-05
1.63012e-05
1.54341e-05
4.63981e-06
5.28169e-06
1.41263e-05
1.50532e-05
1.60808e-05
1.63999e-05
1.43865e-05
1.64153e-05
1.56299e-05
4.36758e-06
5.27728e-06
1.42863e-05
1.58598e-05
1.56251e-05
5.14195e-06
5.74429e-06
6.78751e-06
1.68184e-05
1.59702e-05
1.84953e-05
1.7768e-05
5.27482e-06
6.367e-06
1.65305e-05
1.689e-05
1.76875e-05
1.8434e-05
1.60829e-05
1.83571e-05
1.76421e-05
5.27236e-06
6.3992e-06
1.61109e-05
1.79179e-05
1.77043e-05
6.14189e-06
6.78292e-06
8.2763e-06
1.90654e-05
1.84347e-05
2.10071e-05
2.06469e-05
6.38126e-06
7.97658e-06
1.82196e-05
1.8913e-05
2.01349e-05
2.04388e-05
1.81811e-05
2.05908e-05
1.99427e-05
6.40344e-06
7.84093e-06
1.82699e-05
2.03335e-05
2.00789e-05
7.4455e-06
8.31161e-06
1.02978e-05
2.17095e-05
2.14085e-05
2.38221e-05
2.35608e-05
8.02203e-06
1.01091e-05
2.07366e-05
2.10059e-05
2.27112e-05
2.28547e-05
2.05814e-05
2.32292e-05
2.26649e-05
7.87415e-06
9.85684e-06
2.0719e-05
2.31094e-05
2.27998e-05
9.47921e-06
1.03685e-05
1.28245e-05
2.45749e-05
2.42459e-05
2.694e-05
2.61743e-05
1.01816e-05
1.25968e-05
2.34712e-05
2.35889e-05
2.58901e-05
2.60172e-05
2.34523e-05
2.63174e-05
2.59147e-05
9.9304e-06
1.24996e-05
2.35897e-05
2.62557e-05
2.60907e-05
1.22531e-05
1.29125e-05
1.58633e-05
2.77133e-05
2.68601e-05
3.02828e-05
2.95671e-05
1.26936e-05
1.56288e-05
2.6699e-05
2.68593e-05
2.9492e-05
2.97343e-05
2.67432e-05
3.00607e-05
2.95245e-05
1.2607e-05
1.56368e-05
2.69366e-05
2.98252e-05
2.96836e-05
1.54507e-05
1.58156e-05
1.91826e-05
3.11304e-05
3.05214e-05
3.36475e-05
3.33518e-05
1.56081e-05
1.90205e-05
3.03941e-05
3.06506e-05
3.31428e-05
3.34044e-05
3.04325e-05
3.34328e-05
3.31625e-05
1.56061e-05
1.90449e-05
3.05723e-05
3.35858e-05
3.33096e-05
1.87794e-05
1.89509e-05
2.31598e-05
3.46109e-05
3.43596e-05
3.77064e-05
3.7499e-05
1.87843e-05
2.30993e-05
3.41928e-05
3.44353e-05
3.73875e-05
3.75616e-05
3.42224e-05
3.76873e-05
3.72425e-05
1.88149e-05
2.31741e-05
3.43486e-05
3.78283e-05
3.7441e-05
2.2835e-05
2.28665e-05
2.76459e-05
3.8745e-05
3.85795e-05
4.20912e-05
4.19703e-05
2.2787e-05
2.74969e-05
3.84638e-05
3.86168e-05
4.19316e-05
4.20465e-05
3.8196e-05
4.20572e-05
4.17356e-05
2.28707e-05
2.7627e-05
3.84129e-05
4.22194e-05
4.17869e-05
2.73185e-05
2.77999e-05
3.27973e-05
4.33299e-05
4.32053e-05
4.71399e-05
4.7016e-05
2.76297e-05
3.2613e-05
4.32109e-05
4.33214e-05
4.71044e-05
4.71575e-05
4.31699e-05
4.72751e-05
4.73481e-05
2.7771e-05
3.275e-05
4.31621e-05
4.73456e-05
4.73341e-05
3.28551e-05
3.351e-05
3.87612e-05
4.84565e-05
4.8308e-05
5.28437e-05
5.26388e-05
3.33464e-05
3.86309e-05
4.8401e-05
4.84193e-05
5.27045e-05
5.26529e-05
4.86404e-05
5.27413e-05
5.28251e-05
3.34686e-05
3.86827e-05
4.86553e-05
5.28639e-05
5.28806e-05
3.87624e-05
3.97783e-05
4.60173e-05
5.44533e-05
5.42614e-05
5.90517e-05
5.89195e-05
3.96579e-05
4.59604e-05
5.43125e-05
5.42593e-05
5.89513e-05
5.89136e-05
5.43989e-05
5.89476e-05
5.89666e-05
3.97122e-05
4.60073e-05
5.44517e-05
5.89869e-05
5.90088e-05
4.60148e-05
4.72082e-05
5.5048e-05
6.04925e-05
6.03648e-05
6.5444e-05
6.53319e-05
4.71564e-05
5.49959e-05
6.03959e-05
6.03691e-05
6.53619e-05
6.5372e-05
6.03973e-05
6.53756e-05
6.53446e-05
4.71976e-05
5.5056e-05
6.04402e-05
6.54073e-05
6.53824e-05
5.50004e-05
5.68427e-05
6.75255e-05
6.74862e-05
6.73879e-05
7.43254e-05
7.42744e-05
5.67952e-05
6.75083e-05
6.74156e-05
6.74346e-05
7.42951e-05
7.43177e-05
6.73972e-05
7.43036e-05
7.42785e-05
5.68639e-05
6.75642e-05
6.74301e-05
7.43496e-05
7.42978e-05
6.75035e-05
6.9666e-05
7.99592e-05
7.67068e-05
7.66694e-05
8.43202e-05
8.4307e-05
6.96533e-05
7.99583e-05
7.66888e-05
7.67065e-05
8.43225e-05
8.43241e-05
7.66726e-05
8.43268e-05
8.431e-05
6.97017e-05
7.9973e-05
7.66895e-05
8.43466e-05
8.43217e-05
7.99524e-05
8.18433e-05
9.07061e-05
8.70435e-05
8.70328e-05
9.51751e-05
9.5167e-05
8.18432e-05
9.07074e-05
8.70471e-05
8.70446e-05
9.51793e-05
9.5169e-05
8.70372e-05
9.51866e-05
9.51752e-05
8.18541e-05
9.07078e-05
8.7048e-05
9.519e-05
9.51837e-05
9.07043e-05
9.21744e-05
9.78311e-05
9.76432e-05
9.76355e-05
0.000103581
0.000103574
9.21757e-05
9.78323e-05
9.7648e-05
9.76357e-05
0.000103587
0.000103571
9.76445e-05
0.000103595
0.000103583
9.21751e-05
9.78265e-05
9.76525e-05
0.000103593
0.000103592
9.78282e-05
9.86176e-05
0.000100513
0.000104969
0.00010496
0.000107462
0.000107453
9.86186e-05
0.000100514
0.000104974
0.000104957
0.000107468
0.000107449
0.000104971
0.000107475
0.000107465
9.86125e-05
0.00010051
0.000104979
0.000107473
0.000107473
0.000100514
0.000100655
0.000101147
0.000107898
0.000107888
0.000108573
0.000108563
0.000100656
0.000101148
0.000107904
0.000107885
0.000108579
0.000108559
0.000107901
0.000108586
0.000108576
0.000100651
0.000101143
0.000107909
0.000108584
0.000108584
0.000101147
0.000101149
0.000101287
0.000108672
0.000108662
0.000108812
0.000108802
0.000101149
0.000101287
0.000108679
0.000108658
0.000108819
0.000108798
0.000108675
0.000108825
0.000108814
0.000101144
0.000101282
0.000108683
0.000108822
0.000108822
0.000101286
0.000101256
0.000101332
0.000108832
0.000108822
0.000108857
0.000108847
0.000101256
0.000101332
0.000108839
0.000108818
0.000108864
0.000108843
0.000108834
0.000108869
0.000108858
0.000101251
0.000101327
0.000108842
0.000108867
0.000108866
0.00010133
0.000101285
0.000101318
0.000108859
0.000108848
0.00010886
0.000108849
0.000101285
0.000101318
0.000108866
0.000108844
0.000108867
0.000108846
0.000108859
0.000108872
0.000108861
0.00010128
0.000101312
0.000108867
0.00010887
0.000108868
0.000101315
0.000101274
0.000101325
0.000108861
0.00010885
0.000108862
0.000108852
0.000101274
0.000101325
0.000108868
0.000108846
0.000108869
0.000108848
0.000108861
0.000108874
0.000108862
0.000101269
0.00010132
0.000108869
0.000108872
0.00010887
0.000101322
0.000101281
0.000101323
0.000108863
0.000108852
0.000108863
0.000108852
0.000101281
0.000101323
0.00010887
0.000108848
0.00010887
0.000108849
0.000108862
0.000108875
0.000108863
0.000101276
0.000101318
0.00010887
0.000108873
0.00010887
0.00010132
0.000101279
0.000101325
0.000108863
0.000108852
0.000108864
0.000108852
0.000101279
0.000101325
0.00010887
0.000108849
0.000108871
0.000108849
0.000108863
0.000108876
0.000108864
0.000101274
0.00010132
0.000108871
0.000108874
0.000108871
0.000101322
0.000101281
0.000101326
0.000108865
0.000108853
0.000108866
0.000108854
0.000101281
0.000101326
0.000108871
0.00010885
0.000108873
0.000108851
0.000108864
0.000108877
0.000108866
0.000101276
0.00010132
0.000108872
0.000108875
0.000108873
0.000101323
0.000101281
0.000101326
0.000108866
0.000108854
0.000108866
0.000108855
0.000101282
0.000101327
0.000108874
0.000108852
0.000108874
0.000108853
0.000108866
0.000108879
0.000108866
0.000101277
0.000101321
0.000108873
0.000108877
0.000108873
0.000101323
0.000101282
0.000101326
0.000108867
0.000108855
0.000108867
0.000108855
0.000101283
0.000101327
0.000108874
0.000108853
0.000108875
0.000108853
0.000108866
0.000108879
0.000108867
0.000101277
0.000101321
0.000108873
0.000108877
0.000108874
0.000101323
0.000101282
0.000101326
0.000108867
0.000108855
0.000108867
0.000108855
0.000101283
0.000101327
0.000108875
0.000108853
0.000108875
0.000108853
0.000108867
0.000108879
0.000108867
0.000101277
0.000101321
0.000108874
0.000108877
0.000108874
0.000101323
0.000101282
0.000101326
0.000108867
0.000108855
0.000108867
0.000108855
0.000101283
0.000101327
0.000108875
0.000108853
0.000108875
0.000108853
0.000108867
0.000108879
0.000108867
0.000101277
0.000101321
0.000108874
0.000108877
0.000108874
0.000101323
0.000101282
0.000101327
0.000108867
0.000108855
0.000108867
0.000108855
0.000101282
0.000101327
0.000108875
0.000108853
0.000108875
0.000108853
0.000108867
0.00010888
0.000108867
0.000101277
0.000101322
0.000108874
0.000108877
0.000108874
0.000101323
0.000101282
0.000101327
0.000108867
0.000108855
0.000108867
0.000108855
0.000101283
0.000101327
0.000108875
0.000108853
0.000108875
0.000108853
0.000108867
0.00010888
0.000108867
0.000101277
0.000101322
0.000108874
0.000108877
0.000108874
0.000101323
0.000101283
0.000101326
0.000108867
0.000108855
0.000108867
0.000108855
0.000101283
0.000101326
0.000108875
0.000108853
0.000108875
0.000108853
0.000108867
0.000108879
0.000108867
0.000101278
0.000101321
0.000108874
0.000108877
0.000108874
0.000101324
0.000101283
0.000101326
0.000108867
0.000108856
0.000108867
0.000108856
0.000101282
0.000101326
0.000108876
0.000108853
0.000108875
0.000108853
0.000108867
0.00010888
0.000108867
0.000101277
0.000101321
0.000108874
0.000108877
0.000108874
0.000101324
0.000101282
0.000101326
0.000108867
0.000108856
0.000108867
0.000108856
0.000101282
0.000101327
0.000108875
0.000108853
0.000108875
0.000108853
0.000108867
0.00010888
0.000108867
0.000101277
0.000101322
0.000108874
0.000108877
0.000108874
0.000101322
0.000101282
0.000101326
0.000108867
0.000108856
0.000108867
0.000108856
0.000101283
0.000101327
0.000108875
0.000108853
0.000108875
0.000108853
0.000108867
0.00010888
0.000108867
0.000101278
0.000101321
0.000108874
0.000108877
0.000108874
0.000101322
0.000101282
0.000101326
0.000108867
0.000108856
0.000108867
0.000108857
0.000101283
0.000101326
0.000108875
0.000108853
0.000108875
0.000108853
0.000108867
0.00010888
0.000108867
0.000101278
0.00010132
0.000108874
0.000108877
0.000108874
0.000101322
0.000101282
0.000101326
0.000108867
0.000108857
0.000108867
0.000108857
0.000101283
0.000101326
0.000108875
0.000108853
0.000108875
0.000108853
0.000108867
0.000108881
0.000108867
0.000101277
0.00010132
0.000108874
0.000108877
0.000108874
0.000101322
0.000101282
0.000101326
0.000108867
0.000108857
0.000108868
0.000108857
0.000101282
0.000101326
0.000108875
0.000108853
0.000108875
0.000108853
0.000108867
0.000108881
0.000108867
0.000101276
0.00010132
0.000108874
0.000108876
0.000108874
0.000101323
0.000101282
0.000101326
0.000108868
0.000108857
0.000108868
0.000108857
0.000101282
0.000101326
0.000108875
0.000108853
0.000108875
0.000108853
0.000108867
0.000108881
0.000108867
0.000101276
0.000101321
0.000108874
0.000108877
0.000108874
0.000101323
0.000101282
0.000101327
0.000108868
0.000108857
0.000108868
0.000108857
0.000101282
0.000101326
0.000108875
0.000108853
0.000108874
0.000108853
0.000108867
0.000108881
0.000108867
0.000101276
0.000101321
0.000108874
0.000108877
0.000108874
0.000101324
0.000101282
0.000101327
0.000108868
0.000108857
0.000108868
0.000108857
0.000101282
0.000101326
0.000108875
0.000108853
0.000108874
0.000108853
0.000108867
0.000108881
0.000108867
0.000101277
0.000101321
0.000108874
0.000108876
0.000108874
0.000101325
0.000101283
0.000101327
0.000108868
0.000108857
0.000108868
0.000108857
0.000101282
0.000101327
0.000108874
0.000108853
0.000108874
0.000108853
0.000108867
0.000108881
0.000108867
0.000101277
0.000101321
0.000108874
0.000108876
0.000108874
0.000101325
0.000101283
0.000101327
0.000108868
0.000108857
0.000108868
0.000108857
0.000101282
0.000101327
0.000108874
0.000108853
0.000108874
0.000108853
0.000108867
0.000108881
0.000108867
0.000101276
0.000101321
0.000108874
0.000108876
0.000108873
0.000101325
0.000101282
0.000101327
0.000108868
0.000108857
0.000108868
0.000108857
0.000101282
0.000101327
0.000108874
0.000108853
0.000108874
0.000108853
0.000108867
0.000108881
0.000108867
0.000101276
0.000101321
0.000108874
0.000108876
0.000108874
0.000101326
0.000101283
0.000101327
0.000108869
0.000108857
0.000108868
0.000108857
0.000101283
0.000101327
0.000108874
0.000108853
0.000108874
0.000108853
0.000108867
0.000108881
0.000108867
0.000101277
0.000101321
0.000108874
0.000108877
0.000108873
0.000101326
0.000101283
0.000101327
0.000108869
0.000108857
0.000108869
0.000108857
0.000101283
0.000101327
0.000108875
0.000108853
0.000108874
0.000108853
0.000108867
0.000108881
0.000108867
0.000101277
0.000101321
0.000108874
0.000108876
0.000108873
0.000101326
0.000101283
0.000101327
0.000108869
0.000108857
0.000108869
0.000108857
0.000101283
0.000101327
0.000108875
0.000108853
0.000108874
0.000108853
0.000108867
0.000108881
0.000108867
0.000101277
0.000101321
0.000108873
0.000108877
0.000108873
0.000101326
0.000101283
0.000101327
0.000108869
0.000108857
0.000108869
0.000108857
0.000101282
0.000101327
0.000108875
0.000108853
0.000108874
0.000108853
0.000108867
0.000108881
0.000108867
0.000101277
0.000101321
0.000108873
0.000108877
0.000108873
0.000101325
0.000101282
0.000101327
0.000108869
0.000108858
0.000108869
0.000108858
0.000101282
0.000101327
0.000108875
0.000108853
0.000108874
0.000108853
0.000108867
0.000108881
0.000108867
0.000101277
0.000101321
0.000108873
0.000108877
0.000108873
0.000101326
0.000101282
0.000101327
0.000108869
0.000108858
0.000108869
0.000108858
0.000101283
0.000101327
0.000108874
0.000108853
0.000108874
0.000108853
0.000108867
0.000108881
0.000108867
0.000101277
0.000101321
0.000108873
0.000108877
0.000108873
0.000101326
0.000101282
0.000101327
0.000108869
0.000108858
0.000108869
0.000108858
0.000101283
0.000101327
0.000108874
0.000108853
0.000108874
0.000108853
0.000108867
0.000108881
0.000108867
0.000101277
0.000101321
0.000108873
0.000108877
0.000108873
0.000101326
0.000101283
0.000101328
0.000108869
0.000108858
0.000108869
0.000108857
0.000101283
0.000101327
0.000108874
0.000108853
0.000108874
0.000108853
0.000108867
0.000108881
0.000108867
0.000101277
0.000101321
0.000108873
0.000108877
0.000108873
0.000101325
0.000101283
0.000101328
0.000108869
0.000108858
0.000108869
0.000108857
0.000101283
0.000101327
0.000108874
0.000108853
0.000108874
0.000108853
0.000108867
0.000108881
0.000108867
0.000101277
0.000101321
0.000108873
0.000108876
0.000108873
0.000101324
0.000101283
0.000101327
0.000108869
0.000108858
0.000108869
0.000108857
0.000101283
0.000101327
0.000108874
0.000108853
0.000108874
0.000108853
0.000108867
0.000108881
0.000108867
0.000101277
0.000101321
0.000108873
0.000108876
0.000108873
0.000101325
0.000101283
0.000101327
0.000108869
0.000108858
0.000108869
0.000108857
0.000101282
0.000101327
0.000108874
0.000108853
0.000108874
0.000108853
0.000108867
0.000108881
0.000108867
0.000101276
0.000101321
0.000108873
0.000108876
0.000108873
0.000101325
0.000101283
0.000101327
0.000108869
0.000108858
0.000108869
0.000108857
0.000101282
0.000101327
0.000108874
0.000108853
0.000108874
0.000108853
0.000108867
0.000108881
0.000108867
0.000101277
0.000101321
0.000108873
0.000108876
0.000108873
0.000101325
0.000101282
0.000101327
0.000108869
0.000108858
0.000108868
0.000108857
0.000101283
0.000101328
0.000108874
0.000108853
0.000108874
0.000108853
0.000108867
0.000108881
0.000108867
0.000101277
0.000101321
0.000108873
0.000108877
0.000108873
0.000101325
0.000101282
0.000101327
0.000108869
0.000108857
0.000108868
0.000108857
0.000101283
0.000101327
0.000108874
0.000108853
0.000108874
0.000108853
0.000108867
0.000108881
0.000108867
0.000101277
0.000101321
0.000108873
0.000108877
0.000108873
0.000101325
0.000101282
0.000101327
0.000108869
0.000108857
0.000108868
0.000108857
0.000101283
0.000101327
0.000108874
0.000108853
0.000108873
0.000108853
0.000108867
0.000108881
0.000108867
0.000101276
0.000101321
0.000108873
0.000108877
0.000108873
0.000101326
0.000101282
0.000101327
0.000108869
0.000108857
0.000108869
0.000108857
0.000101283
0.000101327
0.000108874
0.000108853
0.000108874
0.000108853
0.000108867
0.000108881
0.000108867
0.000101277
0.000101322
0.000108873
0.000108876
0.000108873
0.000101325
0.000101283
0.000101327
0.000108869
0.000108858
0.000108869
0.000108857
0.000101283
0.000101327
0.000108874
0.000108853
0.000108874
0.000108853
0.000108867
0.000108881
0.000108867
0.000101277
0.000101321
0.000108873
0.000108876
0.000108873
0.000101324
0.000101283
0.000101327
0.000108869
0.000108857
0.000108869
0.000108857
0.000101283
0.000101327
0.000108874
0.000108853
0.000108874
0.000108853
0.000108867
0.000108881
0.000108867
0.000101277
0.000101321
0.000108873
0.000108876
0.000108873
0.000101324
0.000101283
0.000101327
0.000108869
0.000108857
0.000108869
0.000108857
0.000101283
0.000101327
0.000108874
0.000108853
0.000108874
0.000108853
0.000108867
0.000108881
0.000108867
0.000101276
0.000101321
0.000108873
0.000108876
0.000108873
0.000101324
0.000101282
0.000101327
0.000108869
0.000108857
0.000108869
0.000108857
0.000101283
0.000101327
0.000108874
0.000108853
0.000108874
0.000108853
0.000108867
0.000108881
0.000108867
0.000101276
0.000101321
0.000108873
0.000108876
0.000108873
0.000101325
0.000101282
0.000101327
0.000108869
0.000108857
0.000108869
0.000108857
0.000101282
0.000101327
0.000108874
0.000108853
0.000108874
0.000108853
0.000108867
0.000108881
0.000108867
0.000101277
0.000101321
0.000108873
0.000108876
0.000108873
0.000101325
0.000101282
0.000101327
0.000108869
0.000108857
0.000108869
0.000108857
0.000101282
0.000101327
0.000108874
0.000108853
0.000108874
0.000108853
0.000108867
0.000108881
0.000108867
0.000101277
0.000101321
0.000108873
0.000108876
0.000108873
0.000101325
0.000101282
0.000101327
0.000108869
0.000108857
0.000108869
0.000108857
0.000101283
0.000101327
0.000108874
0.000108853
0.000108874
0.000108853
0.000108867
0.000108881
0.000108867
0.000101277
0.000101321
0.000108873
0.000108876
0.000108873
0.000101326
0.000101282
0.000101327
0.000108869
0.000108857
0.000108869
0.000108857
0.000101283
0.000101327
0.000108874
0.000108853
0.000108874
0.000108853
0.000108867
0.000108881
0.000108867
0.000101277
0.000101321
0.000108873
0.000108876
0.000108873
0.000101326
0.000101282
0.000101327
0.000108869
0.000108857
0.000108869
0.000108857
0.000101283
0.000101327
0.000108874
0.000108853
0.000108874
0.000108853
0.000108867
0.000108881
0.000108867
0.000101277
0.000101321
0.000108873
0.000108876
0.000108873
0.000101325
0.000101283
0.000101327
0.000108869
0.000108857
0.000108869
0.000108857
0.000101283
0.000101327
0.000108874
0.000108853
0.000108874
0.000108853
0.000108867
0.000108881
0.000108867
0.000101277
0.000101321
0.000108873
0.000108876
0.000108873
0.000101325
0.000101283
0.000101327
0.000108869
0.000108858
0.000108869
0.000108858
0.000101283
0.000101327
0.000108874
0.000108853
0.000108874
0.000108853
0.000108867
0.000108882
0.000108867
0.000101277
0.000101321
0.000108873
0.000108876
0.000108873
0.000101324
0.000101283
0.000101327
0.000108869
0.000108858
0.000108869
0.000108858
0.000101283
0.000101327
0.000108874
0.000108853
0.000108874
0.000108853
0.000108867
0.000108882
0.000108867
0.000101277
0.000101321
0.000108873
0.000108876
0.000108873
0.000101324
0.000101283
0.000101327
0.000108869
0.000108858
0.000108869
0.000108858
0.000101283
0.000101327
0.000108875
0.000108854
0.000108874
0.000108853
0.000108868
0.000108882
0.000108867
0.000101277
0.000101321
0.000108874
0.000108876
0.000108874
0.000101324
0.000101283
0.000101327
0.00010887
0.000108858
0.000108869
0.000108858
0.000101283
0.000101328
0.000108875
0.000108854
0.000108874
0.000108853
0.000108868
0.000108882
0.000108868
0.000101277
0.000101321
0.000108874
0.000108876
0.000108874
0.000101326
0.000101283
0.000101327
0.00010887
0.000108859
0.00010887
0.000108858
0.000101283
0.000101328
0.000108875
0.000108854
0.000108875
0.000108854
0.000108868
0.000108882
0.000108868
0.000101277
0.000101321
0.000108874
0.000108877
0.000108874
0.000101326
0.000101283
0.000101328
0.00010887
0.000108859
0.00010887
0.000108858
0.000101283
0.000101328
0.000108876
0.000108854
0.000108875
0.000108854
0.000108868
0.000108882
0.000108868
0.000101277
0.000101321
0.000108875
0.000108877
0.000108874
0.000101325
0.000101283
0.000101328
0.000108871
0.000108859
0.00010887
0.000108859
0.000101284
0.000101328
0.000108876
0.000108855
0.000108875
0.000108854
0.000108869
0.000108882
0.000108868
0.000101277
0.000101322
0.000108875
0.000108877
0.000108874
0.000101326
0.000101283
0.000101328
0.000108871
0.00010886
0.00010887
0.000108859
0.000101283
0.000101328
0.000108876
0.000108855
0.000108875
0.000108854
0.000108869
0.000108882
0.000108868
0.000101277
0.000101322
0.000108875
0.000108877
0.000108874
0.000101327
0.000101284
0.000101328
0.000108872
0.000108861
0.000108871
0.00010886
0.000101284
0.000101328
0.000108877
0.000108856
0.000108876
0.000108855
0.00010887
0.000108883
0.000108869
0.000101278
0.000101322
0.000108876
0.000108878
0.000108875
0.000101327
0.000101284
0.000101328
0.000108873
0.000108862
0.000108872
0.000108861
0.000101284
0.000101328
0.000108878
0.000108857
0.000108877
0.000108856
0.000108871
0.000108884
0.00010887
0.000101278
0.000101323
0.000108877
0.000108879
0.000108876
0.000101327
0.000101284
0.000101329
0.000108875
0.000108863
0.000108874
0.000108862
0.000101284
0.00010133
0.00010888
0.000108859
0.000108879
0.000108858
0.000108873
0.000108886
0.000108872
0.000101279
0.000101324
0.000108879
0.000108881
0.000108878
0.000101327
0.000101285
0.000101331
0.000108878
0.000108866
0.000108878
0.000108866
0.000101285
0.000101332
0.000108883
0.000108862
0.000108883
0.000108862
0.000108876
0.000108889
0.000108875
0.00010128
0.000101325
0.000108881
0.000108884
0.000108881
0.000101329
0.000101287
0.000101335
0.000108883
0.000108871
0.000108885
0.000108873
0.000101288
0.000101335
0.000108888
0.000108867
0.00010889
0.000108869
0.000108881
0.000108896
0.000108882
0.000101282
0.000101328
0.000108887
0.000108891
0.000108888
0.000101333
0.000101291
0.00010134
0.000108892
0.00010888
0.000108897
0.000108886
0.000101291
0.00010134
0.000108897
0.000108876
0.000108903
0.000108882
0.00010889
0.00010891
0.000108896
0.000101285
0.000101334
0.000108896
0.000108904
0.000108902
0.000101339
0.000101296
0.00010135
0.000108908
0.000108897
0.000108927
0.000108917
0.000101296
0.00010135
0.000108914
0.000108893
0.000108933
0.000108913
0.000108906
0.000108939
0.000108925
0.00010129
0.000101344
0.000108912
0.000108934
0.000108933
0.000101349
0.000101304
0.000101645
0.000108898
0.000108888
0.000109453
0.000109443
0.000101304
0.000101645
0.000108905
0.000108883
0.000109459
0.00010944
0.000108895
0.000109465
0.000109451
0.000101298
0.00010164
0.000108904
0.000109461
0.000109458
0.000101643
0.000101996
0.000109411
0.000109401
0.000101996
0.000109416
0.000109398
0.000121122
0.00012112
0.000121121
0.000109408
0.000101991
0.000109415
0.000100099
2.6642e-05
7.16327e-05
7.15701e-05
5.57634e-07
3.82528e-06
2.10987e-06
4.83101e-05
5.57064e-07
4.78839e-06
4.83734e-05
1.92639e-06
2.16383e-06
1.052e-06
1.61597e-06
1.00404e-06
1.36155e-05
9.23058e-07
1.53611e-05
1.08113e-05
1.2982e-05
1.00892e-06
1.39107e-05
9.05741e-07
1.56526e-05
4.73181e-05
4.73947e-05
4.73397e-05
4.76727e-05
4.76817e-05
4.77844e-05
4.77219e-05
5.83367e-07
9.92497e-07
2.36946e-05
5.49593e-06
5.78326e-07
1.19559e-06
2.36786e-05
1.11087e-05
1.32941e-05
5.39845e-07
2.50351e-05
6.31026e-07
6.27693e-06
5.4901e-07
2.49856e-05
7.59826e-07
1.33801e-06
1.52907e-06
2.29998e-06
1.54632e-06
1.73804e-06
1.20783e-06
1.86286e-05
1.13997e-06
2.11959e-05
1.71214e-05
1.92912e-05