/*--------------------------------*- C++ -*----------------------------------*\
| =========                 |                                                 |
| \\      /  F ield         | OpenFOAM: The Open Source CFD Toolbox           |
|  \\    /   O peration     | Version:  v1906                                 |
|   \\  /    A nd           | Web:      www.OpenFOAM.com                      |
|    \\/     M anipulation  |                                                 |
\*---------------------------------------------------------------------------*/
FoamFile
{
    version     2.0;
    format      ascii;
    class       volScalarField;
    location    "100";
    object      p;
}
// * * * * * * * * * * * * * * * * * * * * * * * * * * * * * * * * * * * * * //

dimensions      [0 2 -2 0 0 0 0];


internalField   nonuniform List<scalar> 
171728
(
0.00354182
0.00354147
0.0035415
0.00354326
0.0035047
0.003504
0.0035039
0.00350708
0.00346836
0.00346738
0.00346745
0.00346968
0.00342304
0.00342224
0.00342227
0.00342493
0.00337507
0.00337437
0.00337429
0.00337702
0.0033269
0.00332618
0.00332619
0.00332895
0.00327886
0.00327817
0.00327826
0.00328105
0.00323178
0.00323121
0.00323128
0.00323404
0.00318561
0.00318519
0.00318519
0.00318796
0.0031405
0.0031401
0.00314016
0.00314292
0.00309629
0.003096
0.00309599
0.00309877
0.00305284
0.00305263
0.00305261
0.0030553
0.00300994
0.00300978
0.00300976
0.00301241
0.00296749
0.00296739
0.00296737
0.00297002
0.00292548
0.00292539
0.00292536
0.00292804
0.00288397
0.00288385
0.00288385
0.00288646
0.00284338
0.00284322
0.00284322
0.00284561
0.00280395
0.00280377
0.00280378
0.00280626
0.00276656
0.00276635
0.00276634
0.00276872
0.00272962
0.00272944
0.00272945
0.00273186
0.00269152
0.00269131
0.00269131
0.00269385
0.00265231
0.00265205
0.00265205
0.00265465
0.00261297
0.00261273
0.00261273
0.0026152
0.00257442
0.00257425
0.00257425
0.00257657
0.00253694
0.00253685
0.00253685
0.00253905
0.00250024
0.00250018
0.00250018
0.00250233
0.00246387
0.00246382
0.00246382
0.00246597
0.00242758
0.00242753
0.00242753
0.00242968
0.0023913
0.00239125
0.00239125
0.0023934
0.00235502
0.00235497
0.00235497
0.00235712
0.00231874
0.00231869
0.00231869
0.00232084
0.00228246
0.00228242
0.00228241
0.00228456
0.00224618
0.00224613
0.00224613
0.00224828
0.0022099
0.00220985
0.00220985
0.002212
0.00217362
0.00217357
0.00217357
0.00217572
0.00213734
0.00213729
0.00213729
0.00213944
0.00210106
0.00210101
0.00210102
0.00210316
0.00206478
0.00206474
0.00206474
0.00206688
0.0020285
0.00202846
0.00202846
0.00203061
0.00199223
0.00199218
0.00199218
0.00199433
0.00195595
0.0019559
0.0019559
0.00195805
0.00191967
0.00191963
0.00191963
0.00192177
0.0018834
0.00188335
0.00188335
0.0018855
0.00184712
0.00184707
0.00184707
0.00184922
0.00181085
0.0018108
0.0018108
0.00181295
0.00177457
0.00177453
0.00177453
0.00177668
0.0017383
0.00173825
0.00173825
0.0017404
0.00170203
0.00170198
0.00170198
0.00170413
0.00166576
0.00166571
0.00166571
0.00166786
0.00162948
0.00162944
0.00162944
0.00163159
0.00159321
0.00159317
0.00159317
0.00159531
0.00155694
0.00155689
0.00155689
0.00155904
0.00152067
0.00152062
0.00152062
0.00152277
0.0014844
0.00148435
0.00148435
0.0014865
0.00144812
0.00144808
0.00144808
0.00145023
0.00141185
0.00141181
0.00141181
0.00141395
0.00137558
0.00137553
0.00137553
0.00137768
0.00133931
0.00133926
0.00133926
0.00134141
0.00130304
0.00130299
0.00130299
0.00130514
0.00126676
0.00126672
0.00126672
0.00126887
0.00123049
0.00123045
0.00123045
0.0012326
0.00119422
0.00119418
0.00119418
0.00119633
0.00115795
0.00115791
0.00115791
0.00116006
0.00112169
0.00112164
0.00112164
0.00112379
0.00108542
0.00108537
0.00108537
0.00108752
0.00104915
0.00104911
0.00104911
0.00105125
0.00101289
0.00101284
0.00101284
0.00101499
0.000976621
0.000976575
0.000976574
0.000978722
0.000940355
0.000940309
0.000940309
0.000942457
0.000904091
0.000904045
0.000904045
0.000906192
0.000867826
0.00086778
0.000867781
0.000869928
0.000831562
0.000831516
0.000831516
0.000833664
0.000795298
0.000795252
0.000795252
0.000797399
0.000759035
0.000758988
0.000758988
0.000761136
0.000722772
0.000722726
0.000722726
0.000724873
0.000686509
0.000686463
0.000686463
0.00068861
0.000650247
0.000650201
0.000650201
0.000652348
0.000613985
0.000613939
0.000613939
0.000616086
0.000577723
0.000577676
0.000577676
0.000579824
0.000541461
0.000541415
0.000541415
0.000543562
0.0005052
0.000505154
0.000505154
0.000507301
0.00046894
0.000468894
0.000468894
0.000471041
0.000432681
0.000432634
0.000432635
0.000434781
0.000396423
0.000396377
0.000396377
0.000398523
0.000360167
0.000360121
0.00036012
0.000362266
0.000323913
0.000323867
0.000323867
0.000326011
0.00028766
0.000287614
0.000287614
0.000289757
0.000251409
0.000251363
0.000251363
0.000253503
0.000215157
0.000215111
0.000215111
0.000217247
0.000178901
0.000178859
0.000178859
0.000180987
0.000142641
0.000142603
0.000142602
0.000144719
0.000106364
0.000106337
0.000106336
0.000108435
7.0098e-05
7.00574e-05
7.00557e-05
7.21293e-05
3.47031e-05
3.4239e-05
3.42353e-05
3.60386e-05
4.89565e-06
4.31162e-06
4.31216e-06
4.35361e-06
0.00354881
0.00354772
0.00354772
0.0035488
0.00354775
0.00354774
0.00355106
0.00355105
0.00355107
0.00355106
0.00354773
0.00354771
0.00354884
0.00354773
0.00354769
0.00354881
0.00354326
0.00351135
0.00354146
0.00354147
0.00351292
0.00351286
0.00354326
0.00351134
0.00354147
0.00354151
0.00351289
0.00351291
0.00354149
0.00351285
0.00351284
0.00354332
0.00351132
0.00354148
0.00351282
0.00351297
0.00351135
0.00350708
0.00347498
0.00350389
0.00350392
0.00347736
0.00347733
0.00350708
0.00347499
0.00350395
0.00350398
0.00347736
0.00347728
0.00350399
0.00347733
0.00347727
0.00350705
0.00347498
0.0035039
0.00347726
0.00347737
0.00347499
0.00346967
0.00343106
0.00346737
0.00346737
0.00343406
0.00343408
0.00346966
0.00343106
0.00346735
0.00346742
0.00343411
0.00343403
0.00346744
0.00343414
0.00343404
0.00346969
0.00343106
0.00346737
0.00343399
0.00343408
0.00343105
0.00342493
0.00338323
0.00342225
0.00342227
0.00338627
0.00338628
0.00342492
0.00338323
0.00342225
0.00342222
0.00338625
0.00338627
0.00342228
0.00338627
0.00338628
0.00342493
0.00338322
0.00342224
0.00338622
0.00338625
0.00338323
0.00337703
0.00333516
0.0033743
0.00337433
0.00333827
0.00333827
0.00337703
0.00333519
0.00337435
0.00337425
0.00333829
0.00333824
0.00337429
0.0033383
0.00333826
0.00337702
0.00333517
0.00337431
0.00333826
0.00333825
0.00333517
0.00332895
0.00328717
0.00332623
0.00332623
0.00329017
0.00329019
0.00332895
0.00328717
0.00332621
0.00332621
0.00329014
0.00329016
0.0033262
0.00329019
0.00329016
0.00332895
0.00328717
0.00332619
0.00329018
0.00329017
0.00328717
0.00328105
0.00324004
0.00327827
0.00327826
0.00324295
0.00324296
0.00328104
0.00324001
0.0032783
0.00327828
0.00324295
0.00324294
0.00327826
0.00324284
0.00324294
0.00328106
0.00324004
0.00327826
0.00324292
0.00324294
0.00324003
0.00323406
0.0031938
0.00323126
0.00323129
0.00319659
0.00319659
0.00323401
0.00319382
0.00323134
0.00323128
0.0031966
0.00319658
0.00323126
0.00319661
0.00319659
0.00323405
0.00319381
0.00323128
0.00319663
0.00319662
0.00319382
0.00318795
0.00314861
0.00318519
0.0031852
0.00315135
0.00315131
0.00318796
0.00314862
0.00318528
0.00318521
0.0031513
0.00315133
0.0031852
0.00315133
0.00315133
0.00318796
0.00314865
0.00318519
0.00315131
0.00315133
0.00314864
0.0031429
0.00310433
0.00314012
0.00314013
0.00310697
0.00310699
0.00314291
0.00310438
0.00314016
0.00314018
0.00310695
0.00310698
0.00314014
0.00310704
0.00310698
0.00314292
0.00310437
0.00314015
0.00310697
0.00310699
0.00310438
0.00309872
0.00306084
0.00309602
0.00309597
0.00306339
0.00306341
0.00309879
0.00306086
0.00309592
0.00309598
0.00306334
0.0030634
0.00309599
0.00306344
0.00306338
0.00309877
0.00306083
0.003096
0.00306339
0.00306339
0.00306083
0.00305532
0.00301795
0.00305261
0.00305258
0.00302046
0.00302041
0.00305532
0.0030179
0.00305255
0.00305256
0.00302045
0.0030204
0.00305262
0.00302041
0.00302042
0.00305529
0.00301792
0.0030526
0.00302042
0.00302041
0.00301788
0.00301247
0.00297546
0.00300977
0.00300973
0.00297791
0.00297783
0.00301241
0.0029754
0.00300975
0.00300973
0.00297792
0.00297792
0.0030098
0.00297793
0.00297793
0.00301245
0.00297545
0.00300978
0.00297794
0.00297791
0.00297543
0.00297005
0.0029334
0.00296735
0.00296727
0.00293585
0.00293588
0.00297001
0.00293341
0.00296735
0.00296735
0.00293586
0.00293586
0.0029674
0.00293587
0.00293585
0.00297005
0.00293338
0.0029674
0.00293586
0.00293582
0.00293342
0.00292804
0.00289176
0.00292538
0.00292544
0.00289418
0.00289419
0.00292804
0.00289176
0.00292536
0.00292537
0.00289419
0.00289418
0.00292542
0.00289415
0.00289411
0.00292802
0.00289172
0.00292539
0.00289417
0.00289412
0.00289178
0.00288647
0.00285091
0.00288387
0.00288388
0.00285331
0.00285331
0.00288647
0.00285092
0.00288387
0.00288386
0.0028533
0.0028533
0.0028838
0.00285328
0.0028532
0.00288644
0.0028509
0.0028838
0.00285329
0.00285323
0.00285074
0.00284575
0.0028111
0.00284322
0.00284324
0.00281344
0.00281347
0.00284574
0.00281115
0.00284323
0.00284324
0.00281345
0.00281348
0.00284312
0.00281348
0.00281351
0.00284573
0.00281116
0.00284313
0.00281347
0.00281348
0.00281125
0.00280611
0.00277339
0.00280371
0.00280376
0.00277548
0.00277551
0.00280616
0.00277339
0.00280375
0.00280377
0.00277552
0.00277552
0.00280385
0.00277554
0.00277558
0.00280617
0.00277338
0.00280382
0.00277553
0.00277559
0.00277344
0.00276869
0.00273673
0.00276633
0.00276633
0.0027388
0.00273876
0.00276869
0.00273669
0.00276634
0.00276633
0.00273878
0.00273876
0.00276637
0.00273876
0.00273876
0.00276868
0.00273671
0.00276638
0.00273877
0.00273876
0.00273669
0.00273189
0.00269885
0.00272947
0.00272944
0.00270098
0.00270097
0.00273187
0.00269884
0.00272945
0.00272944
0.00270097
0.00270097
0.00272943
0.00270096
0.00270096
0.00273188
0.00269884
0.00272944
0.00270097
0.00270096
0.00269883
0.00269386
0.00265979
0.00269132
0.00269132
0.00266192
0.00266192
0.00269386
0.00265979
0.00269131
0.00269131
0.00266192
0.00266192
0.00269131
0.00266192
0.00266192
0.00269386
0.00265979
0.00269131
0.00266192
0.00266192
0.00265979
0.00265465
0.00262032
0.00265205
0.00265205
0.0026225
0.0026225
0.00265465
0.00262031
0.00265205
0.00265205
0.0026225
0.0026225
0.00265205
0.0026225
0.0026225
0.00265465
0.00262032
0.00265205
0.0026225
0.0026225
0.00262032
0.0026152
0.00258157
0.00261274
0.00261273
0.00258377
0.00258377
0.00261519
0.00258157
0.00261273
0.00261273
0.00258377
0.00258377
0.00261273
0.00258377
0.00258377
0.0026152
0.00258157
0.00261273
0.00258377
0.00258377
0.00258157
0.00257657
0.00254392
0.00257425
0.00257425
0.00254611
0.00254611
0.00257657
0.00254392
0.00257425
0.00257425
0.00254611
0.00254611
0.00257425
0.00254611
0.00254611
0.00257657
0.00254392
0.00257425
0.00254611
0.00254611
0.00254392
0.00253905
0.00250713
0.00253685
0.00253685
0.0025093
0.0025093
0.00253905
0.00250713
0.00253685
0.00253685
0.0025093
0.0025093
0.00253685
0.0025093
0.0025093
0.00253905
0.00250713
0.00253685
0.0025093
0.0025093
0.00250713
0.00250233
0.00247075
0.00250018
0.00250018
0.0024729
0.0024729
0.00250233
0.00247075
0.00250018
0.00250018
0.0024729
0.0024729
0.00250018
0.0024729
0.0024729
0.00250233
0.00247075
0.00250018
0.0024729
0.0024729
0.00247075
0.00246597
0.00243446
0.00246382
0.00246382
0.0024366
0.0024366
0.00246597
0.00243446
0.00246382
0.00246382
0.0024366
0.0024366
0.00246382
0.0024366
0.0024366
0.00246597
0.00243446
0.00246382
0.0024366
0.0024366
0.00243446
0.00242968
0.00239818
0.00242753
0.00242753
0.00240032
0.00240032
0.00242968
0.00239818
0.00242753
0.00242753
0.00240032
0.00240032
0.00242753
0.00240032
0.00240032
0.00242968
0.00239818
0.00242753
0.00240032
0.00240032
0.00239818
0.0023934
0.0023619
0.00239125
0.00239125
0.00236404
0.00236404
0.0023934
0.0023619
0.00239125
0.00239125
0.00236404
0.00236404
0.00239125
0.00236404
0.00236404
0.0023934
0.0023619
0.00239125
0.00236404
0.00236404
0.0023619
0.00235712
0.00232562
0.00235497
0.00235497
0.00232776
0.00232776
0.00235712
0.00232562
0.00235497
0.00235497
0.00232776
0.00232776
0.00235497
0.00232776
0.00232776
0.00235712
0.00232562
0.00235497
0.00232776
0.00232776
0.00232562
0.00232084
0.00228934
0.00231869
0.00231869
0.00229149
0.00229149
0.00232084
0.00228934
0.00231869
0.00231869
0.00229148
0.00229148
0.00231869
0.00229149
0.00229149
0.00232084
0.00228934
0.00231869
0.00229148
0.00229148
0.00228934
0.00228456
0.00225306
0.00228242
0.00228242
0.0022552
0.0022552
0.00228456
0.00225306
0.00228241
0.00228241
0.0022552
0.0022552
0.00228242
0.00225521
0.0022552
0.00228456
0.00225306
0.00228241
0.0022552
0.0022552
0.00225306
0.00224828
0.00221678
0.00224613
0.00224613
0.00221892
0.00221892
0.00224828
0.00221678
0.00224613
0.00224613
0.00221892
0.00221892
0.00224613
0.00221892
0.00221892
0.00224828
0.00221678
0.00224613
0.00221892
0.00221892
0.00221678
0.002212
0.0021805
0.00220985
0.00220985
0.00218264
0.00218264
0.002212
0.0021805
0.00220985
0.00220985
0.00218264
0.00218264
0.00220985
0.00218264
0.00218264
0.002212
0.0021805
0.00220985
0.00218264
0.00218264
0.0021805
0.00217572
0.00214422
0.00217357
0.00217357
0.00214636
0.00214636
0.00217572
0.00214422
0.00217357
0.00217357
0.00214636
0.00214636
0.00217357
0.00214636
0.00214636
0.00217572
0.00214422
0.00217357
0.00214636
0.00214636
0.00214422
0.00213944
0.00210794
0.00213729
0.00213729
0.00211008
0.00211008
0.00213944
0.00210794
0.00213729
0.00213729
0.00211008
0.00211009
0.00213729
0.00211008
0.00211008
0.00213944
0.00210794
0.00213729
0.00211008
0.00211008
0.00210794
0.00210316
0.00207166
0.00210102
0.00210101
0.00207381
0.00207381
0.00210316
0.00207166
0.00210102
0.00210102
0.00207381
0.00207381
0.00210102
0.00207381
0.00207381
0.00210316
0.00207166
0.00210102
0.00207381
0.00207381
0.00207166
0.00206688
0.00203538
0.00206474
0.00206474
0.00203753
0.00203753
0.00206688
0.00203538
0.00206474
0.00206474
0.00203753
0.00203753
0.00206474
0.00203753
0.00203753
0.00206688
0.00203538
0.00206474
0.00203753
0.00203753
0.00203538
0.00203061
0.0019991
0.00202846
0.00202846
0.00200125
0.00200125
0.00203061
0.00199911
0.00202846
0.00202846
0.00200125
0.00200125
0.00202846
0.00200125
0.00200125
0.00203061
0.0019991
0.00202846
0.00200125
0.00200125
0.0019991
0.00199433
0.00196283
0.00199218
0.00199218
0.00196497
0.00196497
0.00199433
0.00196283
0.00199218
0.00199218
0.00196497
0.00196497
0.00199218
0.00196497
0.00196497
0.00199433
0.00196283
0.00199218
0.00196497
0.00196497
0.00196283
0.00195805
0.00192655
0.0019559
0.0019559
0.00192869
0.0019287
0.00195805
0.00192655
0.0019559
0.0019559
0.00192869
0.0019287
0.0019559
0.0019287
0.0019287
0.00195805
0.00192655
0.0019559
0.0019287
0.0019287
0.00192655
0.00192177
0.00189027
0.00191963
0.00191963
0.00189242
0.00189242
0.00192177
0.00189027
0.00191963
0.00191963
0.00189242
0.00189242
0.00191963
0.00189242
0.00189242
0.00192177
0.00189027
0.00191963
0.00189242
0.00189242
0.00189027
0.0018855
0.001854
0.00188335
0.00188335
0.00185614
0.00185614
0.0018855
0.001854
0.00188335
0.00188335
0.00185614
0.00185614
0.00188335
0.00185614
0.00185614
0.0018855
0.001854
0.00188335
0.00185614
0.00185614
0.001854
0.00184922
0.00181773
0.00184707
0.00184707
0.00181987
0.00181987
0.00184922
0.00181773
0.00184707
0.00184707
0.00181987
0.00181987
0.00184707
0.00181987
0.00181987
0.00184922
0.00181772
0.00184707
0.00181987
0.00181987
0.00181772
0.00181295
0.00178145
0.0018108
0.0018108
0.0017836
0.0017836
0.00181295
0.00178145
0.0018108
0.0018108
0.0017836
0.0017836
0.0018108
0.0017836
0.0017836
0.00181295
0.00178145
0.0018108
0.0017836
0.0017836
0.00178145
0.00177668
0.00174518
0.00177453
0.00177453
0.00174732
0.00174732
0.00177668
0.00174518
0.00177453
0.00177453
0.00174732
0.00174732
0.00177453
0.00174732
0.00174732
0.00177667
0.00174518
0.00177453
0.00174732
0.00174732
0.00174518
0.0017404
0.00170891
0.00173825
0.00173825
0.00171105
0.00171105
0.0017404
0.00170891
0.00173825
0.00173825
0.00171105
0.00171105
0.00173825
0.00171105
0.00171105
0.0017404
0.00170891
0.00173825
0.00171105
0.00171105
0.00170891
0.00170413
0.00167263
0.00170198
0.00170198
0.00167478
0.00167478
0.00170413
0.00167263
0.00170198
0.00170198
0.00167478
0.00167478
0.00170198
0.00167478
0.00167478
0.00170413
0.00167263
0.00170198
0.00167478
0.00167478
0.00167263
0.00166786
0.00163636
0.00166571
0.00166571
0.00163851
0.00163851
0.00166786
0.00163636
0.00166571
0.00166571
0.00163851
0.00163851
0.00166571
0.00163851
0.00163851
0.00166786
0.00163636
0.00166571
0.00163851
0.00163851
0.00163636
0.00163159
0.00160009
0.00162944
0.00162944
0.00160223
0.00160223
0.00163159
0.00160009
0.00162944
0.00162944
0.00160223
0.00160223
0.00162944
0.00160223
0.00160223
0.00163159
0.00160009
0.00162944
0.00160223
0.00160223
0.00160009
0.00159531
0.00156382
0.00159317
0.00159317
0.00156596
0.00156596
0.00159531
0.00156382
0.00159317
0.00159317
0.00156596
0.00156596
0.00159317
0.00156596
0.00156596
0.00159531
0.00156382
0.00159317
0.00156596
0.00156596
0.00156382
0.00155904
0.00152755
0.00155689
0.00155689
0.00152969
0.00152969
0.00155904
0.00152755
0.00155689
0.00155689
0.00152969
0.00152969
0.00155689
0.00152969
0.00152969
0.00155904
0.00152755
0.00155689
0.00152969
0.00152969
0.00152755
0.00152277
0.00149127
0.00152062
0.00152062
0.00149342
0.00149342
0.00152277
0.00149127
0.00152062
0.00152062
0.00149342
0.00149342
0.00152062
0.00149342
0.00149342
0.00152277
0.00149127
0.00152062
0.00149342
0.00149342
0.00149127
0.0014865
0.001455
0.00148435
0.00148435
0.00145715
0.00145715
0.0014865
0.001455
0.00148435
0.00148435
0.00145715
0.00145715
0.00148435
0.00145715
0.00145715
0.0014865
0.001455
0.00148435
0.00145715
0.00145715
0.001455
0.00145023
0.00141873
0.00144808
0.00144808
0.00142087
0.00142087
0.00145023
0.00141873
0.00144808
0.00144808
0.00142087
0.00142087
0.00144808
0.00142087
0.00142087
0.00145023
0.00141873
0.00144808
0.00142087
0.00142087
0.00141873
0.00141395
0.00138246
0.00141181
0.00141181
0.0013846
0.0013846
0.00141395
0.00138246
0.00141181
0.00141181
0.0013846
0.0013846
0.00141181
0.0013846
0.0013846
0.00141395
0.00138246
0.00141181
0.0013846
0.0013846
0.00138246
0.00137768
0.00134619
0.00137553
0.00137553
0.00134833
0.00134833
0.00137768
0.00134619
0.00137553
0.00137553
0.00134833
0.00134833
0.00137553
0.00134833
0.00134833
0.00137768
0.00134619
0.00137553
0.00134833
0.00134833
0.00134619
0.00134141
0.00130991
0.00133926
0.00133926
0.00131206
0.00131206
0.00134141
0.00130991
0.00133926
0.00133926
0.00131206
0.00131206
0.00133926
0.00131206
0.00131206
0.00134141
0.00130991
0.00133926
0.00131206
0.00131206
0.00130991
0.00130514
0.00127364
0.00130299
0.00130299
0.00127579
0.00127579
0.00130514
0.00127364
0.00130299
0.00130299
0.00127579
0.00127579
0.00130299
0.00127579
0.00127579
0.00130514
0.00127364
0.00130299
0.00127579
0.00127579
0.00127364
0.00126887
0.00123737
0.00126672
0.00126672
0.00123952
0.00123952
0.00126887
0.00123737
0.00126672
0.00126672
0.00123952
0.00123951
0.00126672
0.00123952
0.00123952
0.00126887
0.00123737
0.00126672
0.00123952
0.00123952
0.00123737
0.0012326
0.0012011
0.00123045
0.00123045
0.00120325
0.00120324
0.0012326
0.0012011
0.00123045
0.00123045
0.00120324
0.00120324
0.00123045
0.00120325
0.00120325
0.0012326
0.0012011
0.00123045
0.00120325
0.00120325
0.0012011
0.00119633
0.00116483
0.00119418
0.00119418
0.00116698
0.00116698
0.00119633
0.00116483
0.00119418
0.00119418
0.00116698
0.00116698
0.00119418
0.00116698
0.00116698
0.00119633
0.00116483
0.00119418
0.00116698
0.00116698
0.00116483
0.00116006
0.00112856
0.00115791
0.00115791
0.00113071
0.00113071
0.00116006
0.00112856
0.00115791
0.00115791
0.00113071
0.00113071
0.00115791
0.00113071
0.00113071
0.00116006
0.00112856
0.00115791
0.00113071
0.00113071
0.00112856
0.00112379
0.0010923
0.00112164
0.00112164
0.00109444
0.00109444
0.00112379
0.0010923
0.00112164
0.00112164
0.00109444
0.00109444
0.00112164
0.00109444
0.00109444
0.00112379
0.0010923
0.00112164
0.00109444
0.00109444
0.0010923
0.00108752
0.00105603
0.00108537
0.00108537
0.00105817
0.00105817
0.00108752
0.00105603
0.00108537
0.00108537
0.00105817
0.00105817
0.00108537
0.00105817
0.00105817
0.00108752
0.00105603
0.00108537
0.00105817
0.00105817
0.00105603
0.00105125
0.00101976
0.00104911
0.00104911
0.00102191
0.00102191
0.00105125
0.00101976
0.00104911
0.00104911
0.00102191
0.00102191
0.00104911
0.00102191
0.00102191
0.00105125
0.00101976
0.00104911
0.00102191
0.00102191
0.00101976
0.00101499
0.000983497
0.00101284
0.00101284
0.000985641
0.000985641
0.00101499
0.000983498
0.00101284
0.00101284
0.000985641
0.000985641
0.00101284
0.000985641
0.000985641
0.00101499
0.000983497
0.00101284
0.000985641
0.000985641
0.000983497
0.000978722
0.000947232
0.000976575
0.000976575
0.000949375
0.000949375
0.000978722
0.000947232
0.000976574
0.000976575
0.000949375
0.000949375
0.000976575
0.000949375
0.000949375
0.000978722
0.000947232
0.000976574
0.000949375
0.000949375
0.000947232
0.000942457
0.000910967
0.000940309
0.000940309
0.000913111
0.00091311
0.000942457
0.000910967
0.000940309
0.000940309
0.00091311
0.00091311
0.000940309
0.000913111
0.00091311
0.000942456
0.000910967
0.000940309
0.00091311
0.00091311
0.000910967
0.000906192
0.000874703
0.000904045
0.000904045
0.000876846
0.000876846
0.000906192
0.000874703
0.000904045
0.000904045
0.000876846
0.000876846
0.000904045
0.000876846
0.000876846
0.000906192
0.000874703
0.000904044
0.000876847
0.000876847
0.000874703
0.000869928
0.000838438
0.00086778
0.00086778
0.000840582
0.000840582
0.000869928
0.000838439
0.00086778
0.000867781
0.000840582
0.000840582
0.000867781
0.000840582
0.000840582
0.000869928
0.000838439
0.000867781
0.000840582
0.000840582
0.000838439
0.000833663
0.000802174
0.000831516
0.000831516
0.000804318
0.000804318
0.000833663
0.000802175
0.000831516
0.000831516
0.000804318
0.000804318
0.000831516
0.000804318
0.000804318
0.000833663
0.000802174
0.000831516
0.000804318
0.000804318
0.000802174
0.000797399
0.000765911
0.000795252
0.000795252
0.000768054
0.000768054
0.000797399
0.000765911
0.000795252
0.000795252
0.000768054
0.000768054
0.000795252
0.000768054
0.000768054
0.000797399
0.000765911
0.000795252
0.000768054
0.000768054
0.000765911
0.000761136
0.000729648
0.000758988
0.000758988
0.000731791
0.000731791
0.000761136
0.000729648
0.000758988
0.000758988
0.000731791
0.000731791
0.000758988
0.000731791
0.000731791
0.000761136
0.000729648
0.000758988
0.000731791
0.000731791
0.000729648
0.000724873
0.000693385
0.000722726
0.000722726
0.000695528
0.000695528
0.000724873
0.000693385
0.000722725
0.000722726
0.000695528
0.000695528
0.000722726
0.000695528
0.000695528
0.000724873
0.000693385
0.000722726
0.000695528
0.000695528
0.000693385
0.00068861
0.000657123
0.000686463
0.000686463
0.000659266
0.000659266
0.00068861
0.000657123
0.000686463
0.000686463
0.000659266
0.000659266
0.000686463
0.000659266
0.000659266
0.00068861
0.000657123
0.000686463
0.000659266
0.000659266
0.000657123
0.000652348
0.000620861
0.000650201
0.000650201
0.000623004
0.000623004
0.000652348
0.000620861
0.000650201
0.000650201
0.000623004
0.000623004
0.000650201
0.000623004
0.000623004
0.000652348
0.000620861
0.000650201
0.000623004
0.000623004
0.000620861
0.000616086
0.000584598
0.000613939
0.000613939
0.000586742
0.000586742
0.000616086
0.000584599
0.000613938
0.000613939
0.000586741
0.000586741
0.000613939
0.000586742
0.000586742
0.000616086
0.000584598
0.000613939
0.000586742
0.000586741
0.000584598
0.000579824
0.000548337
0.000577677
0.000577676
0.00055048
0.00055048
0.000579824
0.000548337
0.000577676
0.000577676
0.00055048
0.00055048
0.000577677
0.00055048
0.00055048
0.000579824
0.000548337
0.000577676
0.00055048
0.00055048
0.000548337
0.000543562
0.000512076
0.000541415
0.000541415
0.000514219
0.000514219
0.000543562
0.000512076
0.000541415
0.000541415
0.000514219
0.000514219
0.000541415
0.000514219
0.000514219
0.000543562
0.000512076
0.000541415
0.000514219
0.000514219
0.000512076
0.000507301
0.000475815
0.000505154
0.000505154
0.000477958
0.000477958
0.000507301
0.000475815
0.000505154
0.000505154
0.000477958
0.000477958
0.000505154
0.000477958
0.000477958
0.000507301
0.000475815
0.000505154
0.000477958
0.000477958
0.000475815
0.000471041
0.000439556
0.000468894
0.000468893
0.000441699
0.000441699
0.00047104
0.000439556
0.000468894
0.000468894
0.000441699
0.000441699
0.000468894
0.000441699
0.000441699
0.000471041
0.000439556
0.000468894
0.000441699
0.000441699
0.000439556
0.000434781
0.000403298
0.000432635
0.000432634
0.00040544
0.00040544
0.000434781
0.000403298
0.000432634
0.000432635
0.00040544
0.00040544
0.000432635
0.000405441
0.000405441
0.000434781
0.000403298
0.000432634
0.00040544
0.00040544
0.000403298
0.000398523
0.000367041
0.000396377
0.000396377
0.000369184
0.000369184
0.000398523
0.000367042
0.000396377
0.000396377
0.000369183
0.000369184
0.000396377
0.000369184
0.000369184
0.000398523
0.000367041
0.000396377
0.000369184
0.000369184
0.000367041
0.000362266
0.000330787
0.000360121
0.000360121
0.000332929
0.000332929
0.000362266
0.000330788
0.00036012
0.000360121
0.000332929
0.000332929
0.000360121
0.000332929
0.000332929
0.000362266
0.000330787
0.000360121
0.000332929
0.000332929
0.000330787
0.000326011
0.000294535
0.000323867
0.000323867
0.000296676
0.000296676
0.000326011
0.000294535
0.000323866
0.000323867
0.000296676
0.000296676
0.000323867
0.000296676
0.000296676
0.000326011
0.000294535
0.000323867
0.000296676
0.000296676
0.000294535
0.000289757
0.000258285
0.000287614
0.000287614
0.000260424
0.000260424
0.000289757
0.000258285
0.000287614
0.000287614
0.000260424
0.000260424
0.000287614
0.000260424
0.000260424
0.000289757
0.000258284
0.000287614
0.000260424
0.000260424
0.000258284
0.000253503
0.000222035
0.000251363
0.000251363
0.000224172
0.000224172
0.000253503
0.000222035
0.000251363
0.000251363
0.000224172
0.000224172
0.000251363
0.000224172
0.000224172
0.000253503
0.000222034
0.000251363
0.000224172
0.000224172
0.000222034
0.000217247
0.000185784
0.000215112
0.000215112
0.000187918
0.000187918
0.000217247
0.000185784
0.000215111
0.000215112
0.000187918
0.000187918
0.000215112
0.000187919
0.000187919
0.000217248
0.000185784
0.000215111
0.000187919
0.000187918
0.000185784
0.000180987
0.000149531
0.000178859
0.000178859
0.000151662
0.000151661
0.000180987
0.000149531
0.000178859
0.000178859
0.000151661
0.000151661
0.000178859
0.000151662
0.000151662
0.000180987
0.000149531
0.000178859
0.000151661
0.000151661
0.000149531
0.000144719
0.000113271
0.000142603
0.000142603
0.000115396
0.000115396
0.000144719
0.000113271
0.000142602
0.000142602
0.000115395
0.000115395
0.000142603
0.000115396
0.000115396
0.000144719
0.00011327
0.000142603
0.000115395
0.000115396
0.000113271
0.000108435
7.69967e-05
0.000106337
0.000106337
7.91147e-05
7.9115e-05
0.000108435
7.69976e-05
0.000106336
0.000106336
7.91141e-05
7.91138e-05
0.000106337
7.91148e-05
7.91142e-05
0.000108435
7.69958e-05
0.000106337
7.91136e-05
7.91138e-05
7.6996e-05
7.21305e-05
4.08472e-05
7.00573e-05
7.00576e-05
4.29898e-05
4.29905e-05
7.21307e-05
4.08483e-05
7.00564e-05
7.00558e-05
4.29886e-05
4.2987e-05
7.00565e-05
4.29895e-05
4.29865e-05
7.21297e-05
4.08446e-05
7.00559e-05
4.29866e-05
4.29861e-05
4.08443e-05
3.60424e-05
7.694e-06
3.42397e-05
3.42406e-05
1.02554e-05
1.02542e-05
3.6043e-05
7.69254e-06
3.42389e-05
3.42362e-05
1.02543e-05
1.02507e-05
3.42352e-05
1.02522e-05
1.02485e-05
3.60392e-05
7.69016e-06
3.42351e-05
1.02508e-05
1.02501e-05
7.68848e-06
4.35777e-06
4.31665e-06
4.31367e-06
4.35718e-06
4.31126e-06
4.31062e-06
4.89464e-06
4.89324e-06
4.8926e-06
4.31028e-06
4.35547e-06
4.30905e-06
0.00355532
0.0035597
0.00355768
0.0035577
0.00357931
0.00356115
0.00358725
0.00355921
0.00357935
0.00356122
0.00355924
0.00358739
0.00356921
0.00359047
0.00359042
0.00352539
0.00353995
0.00354349
0.00351722
0.00351692
0.00352083
0.00352528
0.00353966
0.00354357
0.00351728
0.00354182
0.00354184
0.00354183
0.00351348
0.00351346
0.00351346
0.0035135
0.00352473
0.00353819
0.0035424
0.00353195
0.00354467
0.00352151
0.00353246
0.00351693
0.00352089
0.00352482
0.00354227
0.0035382
0.00353206
0.00354469
0.00353295
0.00352168
0.00354376
0.00354383
0.0035288
0.00352154
0.00352157
0.00349814
0.00351172
0.0035114
0.00349627
0.00350894
0.00349539
0.00349815
0.00351171
0.00351143
0.00349623
0.0035047
0.00350468
0.00350472
0.00347827
0.00347827
0.00347828
0.00347828
0.00349575
0.00351052
0.00350392
0.00349551
0.00350872
0.00349647
0.00349525
0.00350899
0.00349547
0.00349568
0.00350415
0.00351048
0.00349543
0.00350872
0.00349498
0.00349662
0.00351208
0.00351205
0.00349427
0.00349715
0.00349719
0.00345601
0.0034711
0.00347205
0.00345491
0.00346986
0.003454
0.00345612
0.0034711
0.00347195
0.00345489
0.00346834
0.00346838
0.00346837
0.0034349
0.00343491
0.0034349
0.0034349
0.00345462
0.00347077
0.00346716
0.00345683
0.00346995
0.00345529
0.00345653
0.00346986
0.00345407
0.0034546
0.00346731
0.0034708
0.00345668
0.00346999
0.00345653
0.00345535
0.00347126
0.00347131
0.00345391
0.00345529
0.00345527
0.00340928
0.00342594
0.0034273
0.0034079
0.00342524
0.00340739
0.00340928
0.0034259
0.00342733
0.00340793
0.00342304
0.00342304
0.00342305
0.00338705
0.00338706
0.00338707
0.00338707
0.00340793
0.00342599
0.00342205
0.00341032
0.00342555
0.00340843
0.00341011
0.00342531
0.0034073
0.00340793
0.00342205
0.003426
0.00341021
0.00342554
0.00341007
0.00340837
0.00342607
0.0034261
0.00340723
0.00340799
0.00340797
0.00336059
0.00337754
0.00337884
0.00335947
0.00337716
0.00335914
0.00336052
0.00337752
0.00337887
0.00335944
0.00337508
0.00337508
0.00337508
0.00333899
0.003339
0.003339
0.003339
0.00335976
0.00337773
0.0033742
0.00336226
0.00337744
0.00335998
0.00336219
0.00337715
0.00335908
0.00335978
0.00337418
0.00337768
0.00336227
0.00337742
0.00336219
0.00335997
0.0033776
0.00337758
0.00335921
0.00335954
0.00335953
0.0033119
0.00332916
0.00333009
0.00331109
0.00332889
0.00331084
0.00331188
0.00332912
0.00333007
0.0033111
0.00332691
0.00332691
0.00332692
0.00329079
0.00329079
0.00329079
0.00329079
0.00331144
0.0033293
0.00332614
0.00331419
0.00332919
0.00331161