/*--------------------------------*- C++ -*----------------------------------*\
| =========                 |                                                 |
| \\      /  F ield         | OpenFOAM: The Open Source CFD Toolbox           |
|  \\    /   O peration     | Version:  v1906                                 |
|   \\  /    A nd           | Web:      www.OpenFOAM.com                      |
|    \\/     M anipulation  |                                                 |
\*---------------------------------------------------------------------------*/
FoamFile
{
    version     2.0;
    format      ascii;
    class       volScalarField;
    location    "137.5";
    object      epsilon;
}
// * * * * * * * * * * * * * * * * * * * * * * * * * * * * * * * * * * * * * //

dimensions      [0 2 -3 0 0 0 0];


internalField   nonuniform List<scalar> 
171728
(
2.68062e-08
6.51029e-09
6.01321e-09
5.15121e-09
2.69061e-08
6.361e-09
5.85331e-09
4.69074e-09
2.76858e-08
6.302e-09
5.77762e-09
4.33805e-09
2.84847e-08
6.32483e-09
5.77802e-09
4.04438e-09
2.92916e-08
6.44194e-09
5.83695e-09
3.79972e-09
3.01087e-08
6.6604e-09
5.97809e-09
3.62852e-09
3.09298e-08
6.96333e-09
6.20576e-09
3.52526e-09
3.17535e-08
7.36764e-09
6.50649e-09
3.48017e-09
3.25825e-08
7.88917e-09
6.86966e-09
3.48299e-09
3.34045e-08
8.52593e-09
7.3225e-09
3.56129e-09
3.42157e-08
9.29427e-09
7.74473e-09
3.69977e-09
3.50326e-08
1.01785e-08
8.31287e-09
3.88719e-09
3.58352e-08
1.11803e-08
9.14385e-09
4.1325e-09
3.66548e-08
1.22564e-08
1.00995e-08
4.51348e-09
3.74558e-08
1.34322e-08
1.12381e-08
5.08382e-09
3.82569e-08
1.45912e-08
1.25854e-08
5.90342e-09
3.90248e-08
1.56692e-08
1.42951e-08
7.10077e-09
3.97704e-08
1.7071e-08
1.64424e-08
8.94893e-09
4.06515e-08
1.94768e-08
1.92673e-08
1.19158e-08
4.17896e-08
2.30709e-08
2.31646e-08
1.67214e-08
4.29657e-08
2.80448e-08
2.84621e-08
2.49024e-08
4.44098e-08
3.51758e-08
3.59289e-08
3.86745e-08
4.61476e-08
4.56521e-08
4.5993e-08
6.06485e-08
4.83531e-08
5.90571e-08
5.94675e-08
9.31699e-08
5.1096e-08
7.60388e-08
7.69369e-08
1.37099e-07
5.47141e-08
9.67522e-08
9.81793e-08
1.90413e-07
5.93349e-08
1.22325e-07
1.23365e-07
2.58744e-07
6.63196e-08
1.57768e-07
1.58218e-07
3.39788e-07
7.69866e-08
2.07065e-07
2.07465e-07
4.30669e-07
9.4081e-08
2.72504e-07
2.72842e-07
5.21671e-07
1.17521e-07
3.47457e-07
3.47645e-07
6.08822e-07
1.44613e-07
4.17361e-07
4.17483e-07
6.79484e-07
1.70763e-07
4.70523e-07
4.70626e-07
7.2826e-07
1.89495e-07
5.00817e-07
5.00919e-07
7.54009e-07
1.9869e-07
5.12429e-07
5.12528e-07
7.62838e-07
2.0201e-07
5.1593e-07
5.16025e-07
7.65423e-07
2.02957e-07
5.16816e-07
5.16909e-07
7.66152e-07
2.03177e-07
5.17007e-07
5.17099e-07
7.66342e-07
2.03212e-07
5.17001e-07
5.17095e-07
7.66216e-07
2.03221e-07
5.17005e-07
5.17098e-07
7.66225e-07
2.03224e-07
5.17014e-07
5.17106e-07
7.66304e-07
2.03224e-07
5.17008e-07
5.17103e-07
7.66218e-07
2.03226e-07
5.17011e-07
5.17106e-07
7.66248e-07
2.03228e-07
5.1701e-07
5.17106e-07
7.66289e-07
2.03229e-07
5.17017e-07
5.17112e-07
7.66278e-07
2.0323e-07
5.17014e-07
5.17109e-07
7.66237e-07
2.03231e-07
5.17014e-07
5.1711e-07
7.66227e-07
2.03231e-07
5.17016e-07
5.17112e-07
7.66226e-07
2.03232e-07
5.17014e-07
5.1711e-07
7.66236e-07
2.03233e-07
5.17015e-07
5.1711e-07
7.6622e-07
2.03233e-07
5.17018e-07
5.17113e-07
7.66229e-07
2.03233e-07
5.17016e-07
5.17112e-07
7.66289e-07
2.03233e-07
5.17016e-07
5.17111e-07
7.66231e-07
2.03233e-07
5.17017e-07
5.17111e-07
7.66211e-07
2.03234e-07
5.17018e-07
5.17108e-07
7.66327e-07
2.03234e-07
5.17017e-07
5.17108e-07
7.66321e-07
2.03234e-07
5.17015e-07
5.17111e-07
7.66237e-07
2.03234e-07
5.17018e-07
5.1711e-07
7.66177e-07
2.03234e-07
5.17019e-07
5.1711e-07
7.66171e-07
2.03234e-07
5.17017e-07
5.17111e-07
7.66183e-07
2.03235e-07
5.17017e-07
5.1711e-07
7.66195e-07
2.03235e-07
5.17019e-07
5.1711e-07
7.66217e-07
2.03235e-07
5.17019e-07
5.17111e-07
7.66238e-07
2.03235e-07
5.17018e-07
5.1711e-07
7.66245e-07
2.03235e-07
5.17018e-07
5.1711e-07
7.66243e-07
2.03235e-07
5.17019e-07
5.1711e-07
7.66235e-07
2.03235e-07
5.17018e-07
5.1711e-07
7.66221e-07
2.03235e-07
5.17017e-07
5.1711e-07
7.66215e-07
2.03235e-07
5.17018e-07
5.17109e-07
7.66218e-07
2.03234e-07
5.17018e-07
5.17109e-07
7.66218e-07
2.03234e-07
5.17018e-07
5.17109e-07
7.66212e-07
2.03234e-07
5.17018e-07
5.17109e-07
7.66214e-07
2.03234e-07
5.17018e-07
5.17109e-07
7.66225e-07
2.03233e-07
5.17018e-07
5.17108e-07
7.66223e-07
2.03233e-07
5.17017e-07
5.17107e-07
7.66205e-07
2.03233e-07
5.17016e-07
5.17106e-07
7.66199e-07
2.03234e-07
5.17015e-07
5.17106e-07
7.66218e-07
2.03234e-07
5.17014e-07
5.17105e-07
7.66237e-07
2.03234e-07
5.17013e-07
5.17104e-07
7.66236e-07
2.03234e-07
5.17013e-07
5.17103e-07
7.66219e-07
2.03234e-07
5.17013e-07
5.17102e-07
7.6621e-07
2.03234e-07
5.17013e-07
5.17103e-07
7.66218e-07
2.03234e-07
5.17014e-07
5.17105e-07
7.66222e-07
2.03234e-07
5.17016e-07
5.17106e-07
7.66208e-07
2.03234e-07
5.17018e-07
5.17108e-07
7.66196e-07
2.03234e-07
5.17021e-07
5.1711e-07
7.66207e-07
2.03234e-07
5.17025e-07
5.17114e-07
7.66227e-07
2.03234e-07
5.17029e-07
5.17118e-07
7.66229e-07
2.03234e-07
5.17034e-07
5.17122e-07
7.66215e-07
2.03234e-07
5.17039e-07
5.17127e-07
7.66205e-07
2.03235e-07
5.17045e-07
5.17133e-07
7.66206e-07
2.03235e-07
5.17053e-07
5.17141e-07
7.66186e-07
2.03231e-07
5.17055e-07
5.17141e-07
7.66139e-07
2.0297e-07
5.16899e-07
5.16979e-07
7.65854e-07
1.94084e-07
4.81494e-07
4.81508e-07
7.2635e-07
5.29465e-09
5.04736e-09
4.85307e-09
5.44112e-09
4.91879e-09
5.36487e-09
2.7558e-08
2.76133e-08
2.74066e-08
2.73251e-08
5.37769e-09
4.43227e-09
5.40527e-09
5.14171e-09
5.05738e-09
5.22654e-09
5.24114e-09
4.89862e-09
5.89765e-09
5.82777e-09
5.75769e-09
5.66163e-09
5.38607e-09
5.02132e-09
5.80963e-09
6.41639e-09
5.74463e-09
6.27014e-09
5.20637e-09
6.39261e-09
5.1209e-09
5.3552e-09
5.02835e-09
5.95437e-09
5.88584e-09
5.80786e-09
4.76438e-09
4.83152e-09
4.56215e-09
5.7243e-09
5.61796e-09
5.64164e-09
5.51306e-09
4.95027e-09
4.66899e-09
5.73694e-09
6.23277e-09
5.73571e-09
6.14631e-09
5.10569e-09
6.30443e-09
5.07958e-09
4.96694e-09
4.74425e-09
5.77152e-09
5.79098e-09
5.69452e-09
4.39887e-09
4.50416e-09
4.29803e-09
5.62102e-09
5.48181e-09
5.5928e-09
5.4258e-09
4.60492e-09
4.35455e-09
5.7412e-09
6.12935e-09
5.78786e-09
6.11867e-09
5.08016e-09
6.3147e-09
5.09752e-09
4.69283e-09
4.51808e-09
5.67974e-09
5.77341e-09
5.6591e-09
4.09921e-09
4.25056e-09
4.11126e-09
5.59402e-09
5.42514e-09
5.61996e-09
5.44259e-09
4.29426e-09
4.08693e-09
5.81043e-09
6.12208e-09
5.91049e-09
6.1591e-09
5.11326e-09
6.40439e-09
5.19743e-09
4.47397e-09
4.3324e-09
5.66036e-09
5.82083e-09
5.68414e-09
3.84688e-09
4.07309e-09
3.95841e-09
5.64108e-09
5.46882e-09
5.72215e-09
5.59312e-09
4.03681e-09
3.91002e-09
5.95431e-09
6.17819e-09
6.12106e-09
6.26684e-09
5.23535e-09
6.5999e-09
5.37851e-09
4.28991e-09
4.17697e-09
5.70035e-09
5.93991e-09
5.7884e-09
3.66443e-09
3.92531e-09
3.85466e-09
5.76248e-09
5.64991e-09
5.90758e-09
5.84405e-09
3.87427e-09
3.80332e-09
6.1902e-09
6.30546e-09
6.43722e-09
6.44852e-09
5.43823e-09
6.88046e-09
5.64444e-09
4.14497e-09
4.07548e-09
5.82879e-09
6.14639e-09
5.97739e-09
3.54789e-09
3.83209e-09
3.80374e-09
5.96478e-09
5.92865e-09
6.18299e-09
6.20654e-09
3.77997e-09
3.75712e-09
6.52894e-09
6.51247e-09
6.84171e-09
6.71249e-09
5.72612e-09
7.26052e-09
5.99778e-09
4.05065e-09
3.99343e-09
6.04128e-09
6.43078e-09
6.25645e-09
3.49383e-09
3.79008e-09
3.80701e-09
6.26219e-09
6.31161e-09
6.546e-09
6.67395e-09
3.74179e-09
3.74969e-09
6.96132e-09
6.78996e-09
7.34337e-09
7.04692e-09
6.09911e-09
7.75324e-09
6.44569e-09
3.97295e-09
3.94368e-09
6.33645e-09
6.77724e-09
6.60808e-09
3.48995e-09
3.8002e-09
3.8845e-09
6.65124e-09
6.80444e-09
6.99729e-09
7.23515e-09
3.73877e-09
3.81675e-09
7.47464e-09
7.13977e-09
7.91266e-09
7.45997e-09
6.56713e-09
8.35975e-09
6.97837e-09
3.92778e-09
3.91214e-09
6.70645e-09
7.21827e-09
7.03619e-09
3.56386e-09
3.88088e-09
4.00943e-09
7.12261e-09
7.38972e-09
7.55425e-09
7.90298e-09
3.81157e-09
3.96925e-09
8.06468e-09
7.56955e-09
8.56951e-09
7.94895e-09
7.12168e-09
9.09724e-09
7.58721e-09
3.89922e-09
3.92691e-09
7.15363e-09
7.64344e-09
7.53163e-09
3.69905e-09
4.0082e-09
4.18714e-09
7.70657e-09
8.08258e-09
8.19701e-09
8.64929e-09
3.96888e-09
4.21042e-09
8.75713e-09
8.08963e-09
9.35494e-09
8.53461e-09
7.75818e-09
9.9523e-09
8.28318e-09
3.92292e-09
4.03986e-09
7.67276e-09
8.14605e-09
8.14144e-09
3.86725e-09
4.20302e-09
4.43981e-09
8.37999e-09
8.86047e-09
8.98227e-09
9.52946e-09
4.21814e-09
4.53443e-09
9.56626e-09
8.70089e-09
1.02628e-08
9.24294e-09
8.4727e-09
1.09256e-08
9.0801e-09
4.04593e-09
4.09966e-09
8.31535e-09
8.93434e-09
8.89654e-09
4.0957e-09
4.47971e-09
4.81764e-09
9.20155e-09
9.76158e-09
9.95526e-09
1.05084e-08
4.58446e-09
4.97921e-09
1.05064e-08
9.43817e-09
1.1312e-08
1.01001e-08
9.29421e-09
1.19846e-08
1.00095e-08
4.10329e-09
4.29725e-09
9.11022e-09
9.85316e-09
9.81909e-09
4.44583e-09
4.88887e-09
5.38592e-09
1.02233e-08
1.07704e-08
1.10849e-08
1.16095e-08
5.05272e-09
5.5453e-09
1.16127e-08
1.0341e-08
1.25512e-08
1.11428e-08
1.02658e-08
1.31299e-08
1.10807e-08
4.35294e-09
4.77967e-09
1.00789e-08
1.09391e-08
1.09194e-08
4.97427e-09
5.49903e-09
6.18879e-09
1.14092e-08
1.19252e-08
1.24765e-08
1.29603e-08
5.65127e-09
6.26763e-09
1.28958e-08
1.14435e-08
1.40289e-08
1.23919e-08
1.13886e-08
1.43544e-08
1.24104e-08
4.88173e-09
5.52395e-09
1.12317e-08
1.22302e-08
1.22638e-08
5.73365e-09
6.36828e-09
7.39947e-09
1.28622e-08
1.33344e-08
1.41888e-08
1.46167e-08
6.41469e-09
7.22476e-09
1.44353e-08
1.27501e-08
1.58613e-08
1.39588e-08
1.2774e-08
1.53971e-08
1.40153e-08
5.69379e-09
6.64313e-09
1.2636e-08
1.3859e-08
1.38937e-08
6.83083e-09
7.69405e-09
9.17113e-09
1.46682e-08
1.50898e-08
1.62755e-08
1.67747e-08
7.45787e-09
8.69577e-09
1.63466e-08
1.43888e-08
1.77899e-08
1.5985e-08
1.44654e-08
1.66349e-08
1.60087e-08
6.91926e-09
8.39704e-09
1.4354e-08
1.58468e-08
1.59479e-08
8.50399e-09
9.62967e-09
1.18528e-08
1.68876e-08
1.74411e-08
1.89648e-08
1.96902e-08
9.12077e-09
1.13701e-08
1.8341e-08
1.65886e-08
2.00829e-08
1.85386e-08
1.66152e-08
1.87872e-08
1.86644e-08
8.84283e-09
1.10788e-08
1.65711e-08
1.8489e-08
1.86634e-08
1.11852e-08
1.25579e-08
1.62174e-08
1.97712e-08
2.05637e-08
2.27293e-08
2.35713e-08
1.21032e-08
1.58152e-08
2.06589e-08
1.93218e-08
2.27314e-08
2.21448e-08
1.94611e-08
2.20824e-08
2.23143e-08
1.18241e-08
1.55336e-08
1.94601e-08
2.20913e-08
2.2348e-08
1.55265e-08
1.74863e-08
2.40893e-08
2.38954e-08
2.47007e-08
2.79013e-08
2.87678e-08
1.70331e-08
2.32977e-08
2.36195e-08
2.3216e-08
2.69232e-08
2.68797e-08
2.34081e-08
2.66393e-08
2.7291e-08
1.67358e-08
2.28824e-08
2.34555e-08
2.69653e-08
2.73461e-08
2.28871e-08
2.61654e-08
3.67562e-08
2.94478e-08
3.03302e-08
3.49158e-08
3.52143e-08
2.52862e-08
3.51133e-08
2.82839e-08
2.83347e-08
3.33492e-08
3.35409e-08
2.88347e-08
3.3125e-08
3.43028e-08
2.48952e-08
3.53678e-08
2.89106e-08
3.3857e-08
3.4409e-08
3.53795e-08
4.00758e-08
5.70187e-08
3.70336e-08
3.69745e-08
4.43311e-08
4.31597e-08
3.82171e-08
5.48288e-08
3.53718e-08
3.55634e-08
4.24726e-08
4.26185e-08
3.64733e-08
4.2744e-08
4.39595e-08
3.86336e-08
5.54315e-08
3.6567e-08
4.32121e-08
4.41152e-08
5.57066e-08
6.20412e-08
8.73087e-08
4.71689e-08
4.56159e-08
5.70931e-08
5.45655e-08
5.98057e-08
8.46902e-08
4.52564e-08
4.53493e-08
5.49964e-08
5.49334e-08
4.67844e-08
5.54264e-08
5.69511e-08
6.04163e-08
8.54751e-08
4.69624e-08
5.57166e-08
5.70325e-08
8.58571e-08
9.44646e-08
1.29318e-07
6.08442e-08
5.81189e-08
7.3673e-08
7.03792e-08
9.17807e-08
1.27038e-07
5.86885e-08
5.8636e-08
7.10392e-08
7.10324e-08
6.08931e-08
7.14711e-08
7.32932e-08
9.26364e-08
1.28058e-07
6.09557e-08
7.22495e-08
7.37909e-08
1.28141e-07
1.38713e-07
1.82965e-07
7.8557e-08
7.49835e-08
9.47462e-08
9.05293e-08
1.36503e-07
1.80682e-07
7.55879e-08
7.5582e-08
9.06697e-08
9.09677e-08
7.7538e-08
9.12111e-08
9.16843e-08
1.37492e-07
1.81925e-07
7.8331e-08
9.25465e-08
9.31809e-08
1.79109e-07
1.94284e-07
2.46113e-07
1.00443e-07
9.62533e-08
1.18403e-07
1.15089e-07
1.92053e-07
2.45168e-07
9.61738e-08
9.6691e-08
1.14494e-07
1.15594e-07
9.7074e-08
1.15276e-07
1.15449e-07
1.93432e-07
2.46711e-07
9.86317e-08
1.165e-07
1.16762e-07
2.44909e-07
2.59393e-07
3.22926e-07
1.25084e-07
1.22193e-07
1.4939e-07
1.4759e-07
2.58782e-07
3.23014e-07
1.21538e-07
1.22705e-07
1.47003e-07
1.48014e-07
1.225e-07
1.47714e-07
1.47802e-07
2.60161e-07
3.23277e-07
1.23676e-07
1.48246e-07
1.48612e-07
3.23365e-07
3.39333e-07
4.13058e-07
1.59205e-07
1.57663e-07
1.94258e-07
1.93262e-07
3.39414e-07
4.12846e-07
1.57145e-07
1.58049e-07
1.9292e-07
1.93546e-07
1.57847e-07
1.93308e-07
1.9333e-07
3.39509e-07
4.12854e-07
1.58554e-07
1.937e-07
1.93741e-07
4.13252e-07
4.30554e-07
5.04097e-07
2.07918e-07
2.07071e-07
2.55286e-07
2.54864e-07
4.30311e-07
5.03846e-07
2.0678e-07
2.07334e-07
2.54658e-07
2.5507e-07
2.07102e-07
2.54738e-07
2.54814e-07
4.30355e-07
5.04098e-07
2.07422e-07
2.55105e-07
2.54914e-07
5.04046e-07
5.2173e-07
5.92557e-07
2.72977e-07
2.72666e-07
3.2893e-07
3.28863e-07
5.215e-07
5.92442e-07
2.72482e-07
2.72863e-07
3.28678e-07
3.28997e-07
2.72611e-07
3.28649e-07
3.28794e-07
5.21756e-07
5.92683e-07
2.7266e-07
3.28866e-07
3.28748e-07
5.92592e-07
6.08787e-07
6.66503e-07
3.47709e-07
3.47678e-07
4.0127e-07
4.01315e-07
6.08692e-07
6.66424e-07
3.47505e-07
3.47803e-07
4.01135e-07
4.01383e-07
3.47622e-07
4.01076e-07
4.01272e-07
6.08902e-07
6.66596e-07
3.47558e-07
4.01205e-07
4.01178e-07
6.66579e-07
6.79417e-07
7.1917e-07
4.17548e-07
4.17599e-07
4.59414e-07
4.59476e-07
6.79343e-07
7.19086e-07
4.17429e-07
4.17661e-07
4.59316e-07
4.59518e-07
4.17567e-07
4.59247e-07
4.5946e-07
6.79495e-07
7.19237e-07
4.17469e-07
4.59351e-07
4.59359e-07
7.19253e-07
7.28186e-07
7.48769e-07
4.70685e-07
4.70748e-07
4.95564e-07
4.95628e-07
7.28105e-07
7.48686e-07
4.70595e-07
4.70788e-07
4.95477e-07
4.95658e-07
4.70734e-07
4.95403e-07
4.95617e-07
7.28242e-07
7.48821e-07
4.70636e-07
4.95501e-07
4.95523e-07
7.48849e-07
7.53932e-07
7.60034e-07
5.00975e-07
5.01039e-07
5.10779e-07
5.10844e-07
7.53853e-07
7.59952e-07
5.00892e-07
5.01067e-07
5.10699e-07
5.10867e-07
5.0103e-07
5.10623e-07
5.10838e-07
7.53977e-07
7.60085e-07
5.00937e-07
5.10723e-07
5.10747e-07
7.60118e-07
7.62756e-07
7.63249e-07
5.12578e-07
5.12644e-07
5.15579e-07
5.15645e-07
7.62678e-07
7.63168e-07
5.12502e-07
5.12667e-07
5.15504e-07
5.15667e-07
5.12638e-07
5.1543e-07
5.15637e-07
7.62798e-07
7.63293e-07
5.12547e-07
5.15524e-07
5.1555e-07
7.63326e-07
7.65346e-07
7.64179e-07
5.16074e-07
5.16141e-07
5.16842e-07
5.16908e-07
7.65268e-07
7.64097e-07
5.16002e-07
5.16162e-07
5.16768e-07
5.16929e-07
5.16132e-07
5.16694e-07
5.16898e-07
7.65382e-07
7.64221e-07
5.16045e-07
5.16786e-07
5.16812e-07
7.64254e-07
7.66079e-07
7.64358e-07
5.16961e-07
5.17027e-07
5.17138e-07
5.17204e-07
7.66001e-07
7.64278e-07
5.16889e-07
5.17049e-07
5.17064e-07
5.17225e-07
5.17017e-07
5.1699e-07
5.17192e-07
7.66114e-07
7.64399e-07
5.16931e-07
5.17081e-07
5.17106e-07
7.64431e-07
7.66271e-07
7.64281e-07
5.17153e-07
5.17219e-07
5.17153e-07
5.17219e-07
7.66196e-07
7.64199e-07
5.17081e-07
5.1724e-07
5.1708e-07
5.1724e-07
5.17207e-07
5.17005e-07
5.17207e-07
7.66305e-07
7.64324e-07
5.1712e-07
5.17097e-07
5.1712e-07
7.64354e-07
7.66145e-07
7.64245e-07
5.17148e-07
5.17214e-07
5.17148e-07
5.17215e-07
7.66066e-07
7.64163e-07
5.17076e-07
5.17235e-07
5.17076e-07
5.17236e-07
5.17202e-07
5.17001e-07
5.17203e-07
7.66181e-07
7.64291e-07
5.17115e-07
5.17094e-07
5.17115e-07
7.64323e-07
7.66149e-07
7.6437e-07
5.17148e-07
5.17217e-07
5.17158e-07
5.1723e-07
7.66071e-07
7.64292e-07
5.17077e-07
5.17237e-07
5.1709e-07
5.17251e-07
5.17203e-07
5.17016e-07
5.17215e-07
7.66188e-07
7.64406e-07
5.17117e-07
5.17107e-07
5.1713e-07
7.64435e-07
7.66238e-07
7.6422e-07
5.17156e-07
5.17224e-07
5.17152e-07
5.17219e-07
7.66167e-07
7.64147e-07
5.1709e-07
5.17247e-07
5.17085e-07
5.17244e-07
5.17212e-07
5.17007e-07
5.1721e-07
7.66271e-07
7.64269e-07
5.17127e-07
5.17101e-07
5.17124e-07
7.64307e-07
7.66126e-07
7.6434e-07
5.17152e-07
5.17219e-07
5.17157e-07
5.17223e-07
7.66059e-07
7.64252e-07
5.17085e-07
5.17243e-07
5.1709e-07
5.17248e-07
5.1721e-07
5.17011e-07
5.17214e-07
7.66176e-07
7.64359e-07
5.17124e-07
5.17106e-07
5.17129e-07
7.64392e-07
7.66187e-07
7.64324e-07
5.17154e-07
5.1722e-07
5.17156e-07
5.17222e-07
7.66101e-07
7.64259e-07
5.17089e-07
5.17246e-07
5.1709e-07
5.17248e-07
5.17212e-07
5.1701e-07
5.17214e-07
7.66205e-07
7.64377e-07
5.17127e-07
5.17106e-07
5.17128e-07
7.64399e-07
7.66221e-07
7.64292e-07
5.17155e-07
5.1722e-07
5.17157e-07
5.17223e-07
7.66152e-07
7.64232e-07
5.1709e-07
5.17246e-07
5.17093e-07
5.17251e-07
5.17212e-07
5.17015e-07
5.17217e-07
7.66254e-07
7.64372e-07
5.17126e-07
5.1711e-07
5.17131e-07
7.64373e-07
7.66189e-07
7.64277e-07
5.17157e-07
5.17223e-07
5.17158e-07
5.17222e-07
7.66141e-07
7.64193e-07
5.17093e-07
5.1725e-07
5.17093e-07
5.17251e-07
5.17217e-07
5.17011e-07
5.17215e-07
7.66266e-07
7.64342e-07
5.17131e-07
5.17107e-07
5.1713e-07
7.64337e-07
7.6616e-07
7.64306e-07
5.17158e-07
5.17222e-07
5.1716e-07
5.17224e-07
7.66103e-07
7.64191e-07
5.17093e-07
5.17251e-07
5.17095e-07
5.17253e-07
5.17215e-07
5.17013e-07
5.17218e-07
7.6625e-07
7.64334e-07
5.1713e-07
5.17109e-07
5.17132e-07
7.64347e-07
7.6616e-07
7.64346e-07
5.1716e-07
5.17223e-07
5.17164e-07
5.17224e-07
7.66077e-07
7.64208e-07
5.17095e-07
5.17253e-07
5.17095e-07
5.17252e-07
5.17217e-07
5.17014e-07
5.17218e-07
7.6624e-07
7.64327e-07
5.17132e-07
5.1711e-07
5.17133e-07
7.64356e-07
7.66195e-07
7.64363e-07
5.17162e-07
5.17223e-07
5.17168e-07
5.17226e-07
7.66076e-07
7.64227e-07
5.17094e-07
5.17252e-07
5.17097e-07
5.17255e-07
5.17218e-07
5.17014e-07
5.17219e-07
7.66235e-07
7.64318e-07
5.17132e-07
5.1711e-07
5.17134e-07
7.64367e-07
7.66225e-07
7.64362e-07
5.17166e-07
5.17224e-07
5.17168e-07
5.17227e-07
7.66084e-07
7.64247e-07
5.17094e-07
5.17253e-07
5.17097e-07
5.17256e-07
5.17218e-07
5.17017e-07
5.17221e-07
7.66221e-07
7.64332e-07
5.17133e-07
5.17111e-07
5.17135e-07
7.64353e-07
7.66238e-07
7.64356e-07
5.17167e-07
5.17225e-07
5.17169e-07
5.17226e-07
7.66106e-07
7.64237e-07
5.17096e-07
5.17255e-07
5.17096e-07
5.17255e-07
5.17219e-07
5.17017e-07
5.17221e-07
7.66232e-07
7.64328e-07
5.17133e-07
5.17112e-07
5.17136e-07
7.6438e-07
7.66253e-07
7.6431e-07
5.17169e-07
5.17226e-07
5.1717e-07
5.17225e-07
7.66112e-07
7.64198e-07
5.17096e-07
5.17255e-07
5.17095e-07
5.17254e-07
5.17219e-07
5.17015e-07
5.1722e-07
7.66241e-07
7.64301e-07
5.17133e-07
5.17109e-07
5.17134e-07
7.64416e-07
7.66216e-07
7.64308e-07
5.1717e-07
5.17225e-07
5.1717e-07
5.17226e-07
7.66066e-07
7.64245e-07
5.17094e-07
5.17254e-07
5.17094e-07
5.17255e-07
5.17219e-07
5.17017e-07
5.17221e-07
7.66206e-07
7.64324e-07
5.17134e-07
5.1711e-07
5.17132e-07
7.64344e-07
7.66186e-07
7.64379e-07
5.1717e-07
5.17224e-07
5.17174e-07
5.17227e-07
7.66092e-07
7.64262e-07
5.17093e-07
5.17253e-07
5.17095e-07
5.17254e-07
5.17219e-07
5.17017e-07
5.17221e-07
7.66216e-07
7.64314e-07
5.17132e-07
5.1711e-07
5.17134e-07
7.64368e-07
7.66255e-07
7.64325e-07
5.17172e-07
5.17224e-07
5.17174e-07
5.17226e-07
7.6614e-07
7.64191e-07
5.17093e-07
5.17254e-07
5.17095e-07
5.17255e-07
5.17219e-07
5.17017e-07
5.17221e-07
7.66221e-07
7.64287e-07
5.1713e-07
5.17108e-07
5.17135e-07
7.64455e-07
7.66249e-07
7.64257e-07
5.17173e-07
5.17224e-07
5.17174e-07
5.17224e-07
7.66087e-07
7.64169e-07
5.17094e-07
5.17253e-07
5.17094e-07
5.17256e-07
5.1722e-07
5.17015e-07
5.1722e-07
7.66168e-07
7.64349e-07
5.17132e-07
5.1711e-07
5.17132e-07
7.64388e-07
7.66158e-07
7.6429e-07
5.17174e-07
5.17223e-07
5.17175e-07
5.17225e-07
7.6603e-07
7.64252e-07
5.17094e-07
5.17254e-07
5.17094e-07
5.17256e-07
5.17219e-07
5.17016e-07
5.17219e-07
7.66193e-07
7.64401e-07
5.17132e-07
5.1711e-07
5.17131e-07
7.64305e-07
7.66139e-07
7.64361e-07
5.17175e-07
5.17224e-07
5.17176e-07
5.17225e-07
7.66084e-07
7.64304e-07
5.17094e-07
5.17254e-07
5.17093e-07
5.17255e-07
5.17219e-07
5.17019e-07
5.17221e-07
7.6625e-07
7.64396e-07
5.17131e-07
5.17108e-07
5.17129e-07
7.64288e-07
7.66186e-07
7.64405e-07
5.17175e-07
5.17224e-07
5.17179e-07
5.17226e-07
7.66164e-07
7.64266e-07
5.17092e-07
5.17254e-07
5.17095e-07
5.17254e-07
5.17219e-07
5.17017e-07
5.1722e-07
7.66276e-07
7.64358e-07
5.17129e-07
5.1711e-07
5.17131e-07
7.64321e-07
7.66267e-07
7.6435e-07
5.17177e-07
5.17226e-07
5.17178e-07
5.17225e-07
7.66174e-07
7.642e-07
5.17092e-07
5.17253e-07
5.17094e-07
5.17255e-07
5.17219e-07
5.17016e-07
5.1722e-07
7.66254e-07
7.64338e-07
5.17129e-07
5.1711e-07
5.17132e-07
7.64353e-07
7.66265e-07
7.64272e-07
5.17177e-07
5.17224e-07
5.17179e-07
5.17227e-07
7.66103e-07
7.64238e-07
5.17094e-07
5.17253e-07
5.17092e-07
5.17255e-07
5.17219e-07
5.17018e-07
5.1722e-07
7.66224e-07
7.64365e-07
5.1713e-07
5.17108e-07
5.17131e-07
7.64377e-07
7.66189e-07
7.64273e-07
5.17177e-07
5.17224e-07
5.1718e-07
5.17228e-07
7.66114e-07
7.64262e-07
5.17092e-07
5.17254e-07
5.17092e-07
5.17255e-07
5.17219e-07
5.17018e-07
5.17219e-07
7.66241e-07
7.64395e-07
5.17129e-07
5.17109e-07
5.17131e-07
7.64404e-07
7.66146e-07
7.6434e-07
5.17179e-07
5.17227e-07
5.17179e-07
5.17224e-07
7.6616e-07
7.64228e-07
5.17091e-07
5.17255e-07
5.17093e-07
5.17255e-07
5.17219e-07
5.17017e-07
5.17221e-07
7.66286e-07
7.6439e-07
5.17129e-07
5.1711e-07
5.1713e-07
7.64418e-07
7.66196e-07
7.64339e-07
5.17179e-07
5.17224e-07
5.1718e-07
5.17225e-07
7.66153e-07
7.64208e-07
5.17092e-07
5.17254e-07
5.17092e-07
5.17254e-07
5.17219e-07
5.17016e-07
5.17221e-07
7.66307e-07
7.64349e-07
5.17129e-07
5.17108e-07
5.1713e-07
7.64417e-07
7.66222e-07
7.64287e-07
5.17179e-07
5.17224e-07
5.17181e-07
5.17225e-07
7.66138e-07
7.64205e-07
5.17092e-07
5.17254e-07
5.17092e-07
5.17254e-07
5.17219e-07
5.17016e-07
5.1722e-07
7.66283e-07
7.64315e-07
5.17129e-07
5.17108e-07
5.17129e-07
7.6441e-07
7.66191e-07
7.64258e-07
5.17179e-07
5.17224e-07
5.1718e-07
5.17226e-07
7.66137e-07
7.64201e-07
5.17092e-07
5.17254e-07
5.17091e-07
5.17254e-07
5.17219e-07
5.17017e-07
5.1722e-07
7.66242e-07
7.64306e-07
5.17129e-07
5.17108e-07
5.17128e-07
7.644e-07
7.66155e-07
7.64288e-07
5.1718e-07
5.17225e-07
5.1718e-07
5.17226e-07
7.66132e-07
7.64202e-07
5.17091e-07
5.17254e-07
5.17091e-07
5.17254e-07
5.17219e-07
5.17016e-07
5.17219e-07
7.66214e-07
7.64321e-07
5.17128e-07
5.17108e-07
5.17128e-07
7.64392e-07
7.66166e-07
7.64311e-07
5.1718e-07
5.17225e-07
5.17182e-07
5.17225e-07
7.66129e-07
7.64197e-07
5.17091e-07
5.17253e-07
5.17092e-07
5.17254e-07
5.17219e-07
5.17016e-07
5.17219e-07
7.66213e-07
7.64337e-07
5.17128e-07
5.17108e-07
5.17128e-07
7.64394e-07
7.66197e-07
7.64277e-07
5.17182e-07
5.17225e-07
5.17182e-07
5.17225e-07
7.66125e-07
7.64176e-07
5.17092e-07
5.17254e-07
5.17092e-07
5.17254e-07
5.17219e-07
5.17016e-07
5.1722e-07
7.66229e-07
7.64327e-07
5.17128e-07
5.17107e-07
5.17129e-07
7.644e-07
7.66172e-07
7.64267e-07
5.17182e-07
5.17225e-07
5.17181e-07
5.17225e-07
7.66098e-07
7.64176e-07
5.17092e-07
5.17254e-07
5.17091e-07
5.17253e-07
5.1722e-07
5.17016e-07
5.1722e-07
7.66227e-07
7.64316e-07
5.17128e-07
5.17108e-07
5.17129e-07
7.64399e-07
7.6614e-07
7.64311e-07
5.17181e-07
5.17225e-07
5.17181e-07
5.17225e-07
7.66073e-07
7.6421e-07
5.1709e-07
5.17253e-07
5.17091e-07
5.17254e-07
5.1722e-07
5.17016e-07
5.1722e-07
7.66209e-07
7.64334e-07
5.17129e-07
5.17107e-07
5.17128e-07
7.64396e-07
7.66169e-07
7.64332e-07
5.17181e-07
5.17225e-07
5.17182e-07
5.17225e-07
7.66089e-07
7.64233e-07
5.17091e-07
5.17254e-07
5.17092e-07
5.17255e-07
5.1722e-07
5.17016e-07
5.1722e-07
7.66216e-07
7.6435e-07
5.17128e-07
5.17107e-07
5.17129e-07
7.64402e-07
7.66199e-07
7.64327e-07
5.17182e-07
5.17225e-07
5.17182e-07
5.17224e-07
7.66116e-07
7.64216e-07
5.17092e-07
5.17255e-07
5.17091e-07
5.17255e-07
5.1722e-07
5.17015e-07
5.1722e-07
7.66238e-07
7.64331e-07
5.17129e-07
5.17106e-07
5.17129e-07
7.64411e-07
7.66205e-07
7.64315e-07
5.17182e-07
5.17224e-07
5.17181e-07
5.17224e-07
7.66108e-07
7.64199e-07
5.17091e-07
5.17255e-07
5.1709e-07
5.17254e-07
5.1722e-07
5.17015e-07
5.17221e-07
7.66227e-07
7.64314e-07
5.17129e-07
5.17105e-07
5.17128e-07
7.64403e-07
7.662e-07
7.64305e-07
5.17181e-07
5.17224e-07
5.1718e-07
5.17224e-07
7.66087e-07
7.64213e-07
5.1709e-07
5.17254e-07
5.17089e-07
5.17254e-07
5.17221e-07
5.17014e-07
5.17219e-07
7.66204e-07
7.64331e-07
5.17128e-07
5.17104e-07
5.17126e-07
7.64388e-07
7.66197e-07
7.64296e-07
5.17181e-07
5.17224e-07
5.17179e-07
5.17223e-07
7.66099e-07
7.64208e-07
5.17089e-07
5.17254e-07
5.17088e-07
5.17253e-07
5.1722e-07
5.17013e-07
5.17219e-07
7.66211e-07
7.64343e-07
5.17127e-07
5.17104e-07
5.17126e-07
7.64393e-07
7.66197e-07
7.64276e-07
5.1718e-07
5.17224e-07
5.17179e-07
5.17222e-07
7.66101e-07
7.64197e-07
5.17089e-07
5.17254e-07
5.17087e-07
5.17252e-07
5.17219e-07
5.17011e-07
5.17218e-07
7.66225e-07
7.64342e-07
5.17126e-07
5.17102e-07
5.17126e-07
7.64414e-07
7.66182e-07
7.64259e-07
5.1718e-07
5.17224e-07
5.17177e-07
5.17221e-07
7.66086e-07
7.64207e-07
5.17089e-07
5.17253e-07
5.17086e-07
5.1725e-07
5.17219e-07
5.17009e-07
5.17216e-07
7.66227e-07
7.64344e-07
5.17126e-07
5.171e-07
5.17124e-07
7.64424e-07
7.66153e-07
7.64277e-07
5.1718e-07
5.17223e-07
5.17175e-07
5.17219e-07
7.66087e-07
7.64221e-07
5.17088e-07
5.17253e-07
5.17084e-07
5.17248e-07
5.17218e-07
5.17008e-07
5.17214e-07
7.66229e-07
7.6434e-07
5.17126e-07
5.17098e-07
5.17122e-07
7.64414e-07
7.66145e-07
7.64319e-07
5.17177e-07
5.17222e-07
5.17175e-07
5.17218e-07
7.66101e-07
7.64215e-07
5.17087e-07
5.17251e-07
5.17082e-07
5.17246e-07
5.17216e-07
5.17006e-07
5.17211e-07
7.6623e-07
7.64317e-07
5.17125e-07
5.17096e-07
5.17119e-07
7.64398e-07
7.66178e-07
7.64335e-07
5.17177e-07
5.17221e-07
5.17172e-07
5.17215e-07
7.66109e-07
7.64187e-07
5.17086e-07
5.1725e-07
5.17081e-07
5.17245e-07
5.17215e-07
5.17004e-07
5.17209e-07
7.6621e-07
7.64315e-07
5.17123e-07
5.17094e-07
5.17117e-07
7.64395e-07
7.66208e-07
7.64322e-07
5.17177e-07
5.1722e-07
5.17169e-07
5.17212e-07
7.66092e-07
7.64176e-07
5.17085e-07
5.17249e-07
5.17079e-07
5.17243e-07
5.17214e-07
5.17002e-07
5.17207e-07
7.66195e-07
7.64348e-07
5.17122e-07
5.17093e-07
5.17115e-07
7.64405e-07
7.66208e-07
7.64303e-07
5.17177e-07
5.17219e-07
5.17168e-07
5.1721e-07
7.66073e-07
7.64193e-07
5.17086e-07
5.17249e-07
5.17076e-07
5.1724e-07
5.17214e-07
5.17e-07
5.17205e-07
7.66223e-07
7.64358e-07
5.17122e-07
5.17091e-07
5.17113e-07
7.64402e-07
7.66197e-07
7.64282e-07
5.17177e-07
5.1722e-07
5.17165e-07
5.17208e-07
7.66077e-07
7.6421e-07
5.17086e-07
5.1725e-07
5.17074e-07
5.17237e-07
5.17215e-07
5.16998e-07
5.17202e-07
7.66249e-07
7.64327e-07
5.17123e-07
5.17088e-07
5.1711e-07
7.64387e-07
7.66185e-07
7.64262e-07
5.17179e-07
5.17221e-07
5.17161e-07
5.17205e-07
7.66093e-07
7.64206e-07
5.17087e-07
5.17251e-07
5.17071e-07
5.17234e-07
5.17216e-07
5.16996e-07
5.172e-07
7.66232e-07
7.64299e-07
5.17123e-07
5.17085e-07
5.17107e-07
7.64384e-07
7.6616e-07
7.64265e-07
5.1718e-07
5.17223e-07
5.17159e-07
5.17202e-07
7.66094e-07
7.64196e-07
5.17089e-07
5.17253e-07
5.17067e-07
5.17231e-07
5.17218e-07
5.16993e-07
5.17197e-07
7.66196e-07
7.64319e-07
5.17125e-07
5.17082e-07
5.17104e-07
7.644e-07
7.66148e-07
7.64292e-07
5.17182e-07
5.17226e-07
5.17156e-07
5.17198e-07
7.66088e-07
7.64191e-07
5.17092e-07
5.17255e-07
5.17064e-07
5.17228e-07
5.17221e-07
5.16989e-07
5.17193e-07
7.66199e-07
7.64345e-07
5.17128e-07
5.17078e-07
5.171e-07
7.64413e-07
7.66165e-07
7.64309e-07
5.17186e-07
5.1723e-07
5.1715e-07
5.17193e-07
7.66083e-07
7.64192e-07
5.17095e-07
5.17259e-07
5.17059e-07
5.17223e-07
5.17224e-07
5.16984e-07
5.17188e-07
7.66222e-07
7.64339e-07
5.17131e-07
5.17073e-07
5.17095e-07
7.64406e-07
7.66187e-07
7.64306e-07
5.17191e-07
5.17234e-07
5.17142e-07
5.17186e-07
7.66081e-07
7.64196e-07
5.171e-07
5.17263e-07
5.17052e-07
5.17215e-07
5.17228e-07
5.16977e-07
5.17181e-07
7.66226e-07
7.64324e-07
5.17135e-07
5.17066e-07
5.17087e-07
7.6439e-07
7.66194e-07
7.6429e-07
5.17195e-07
5.17238e-07
5.17133e-07
5.17177e-07
7.66085e-07
7.64192e-07
5.17104e-07
5.17268e-07
5.17043e-07
5.17206e-07
5.17233e-07
5.16968e-07
5.17171e-07
7.66217e-07
7.64314e-07
5.17139e-07
5.17056e-07
5.17077e-07
7.64384e-07
7.66183e-07
7.6427e-07
5.172e-07
5.17244e-07
5.17121e-07
5.17164e-07
7.66085e-07
7.64181e-07
5.1711e-07
5.17273e-07
5.17031e-07
5.17194e-07
5.17238e-07
5.16955e-07
5.17159e-07
7.66206e-07
7.64305e-07
5.17144e-07
5.17044e-07
5.17065e-07
7.64384e-07
7.66163e-07
7.64269e-07
5.17206e-07
5.1725e-07
5.17105e-07
5.17149e-07
7.66077e-07
7.64173e-07
5.17117e-07
5.1728e-07
5.17015e-07
5.17178e-07
5.17245e-07
5.1694e-07
5.17143e-07
7.66194e-07
7.64303e-07
5.1715e-07
5.17028e-07
5.17049e-07
7.64367e-07
7.66151e-07
7.64282e-07
5.17214e-07
5.17258e-07
5.17082e-07
5.17123e-07
7.66063e-07
7.64182e-07
5.17123e-07
5.17288e-07
5.16994e-07
5.17157e-07
5.17253e-07
5.16916e-07
5.17118e-07
7.66183e-07
7.64324e-07
5.17158e-07
5.17005e-07
5.17021e-07
7.64352e-07
7.66141e-07
7.64125e-07
5.17217e-07
5.17256e-07
5.16749e-07
5.16786e-07
7.66045e-07
7.64044e-07
5.17126e-07
5.17288e-07
5.16654e-07
5.16812e-07
5.17252e-07
5.16584e-07
5.16784e-07
7.66173e-07
7.6417e-07
5.17153e-07
5.16662e-07
5.16677e-07
7.6415e-07
7.65862e-07
7.46774e-07
5.17066e-07
5.17102e-07
5.00162e-07
5.00196e-07
7.65779e-07
7.46724e-07
5.16969e-07
5.17134e-07
5.0012e-07
5.00171e-07
5.17104e-07
5.00086e-07
5.0018e-07
7.6589e-07
7.46785e-07
5.16992e-07
5.00109e-07
5.00128e-07
7.46798e-07
7.26319e-07
4.81539e-07
4.81569e-07
7.26283e-07
4.81515e-07
4.81542e-07
1.94083e-07
1.94073e-07
1.94083e-07
4.81554e-07
7.26327e-07
4.81524e-07
6.68742e-08
1.1629e-08
4.58531e-08
4.59735e-08
1.41012e-09
5.36109e-09
1.21861e-08
2.80073e-08
1.59917e-09
5.1277e-09
2.75719e-08
1.08933e-08
5.41455e-09
7.75808e-09
3.71245e-09
6.49783e-09
1.64899e-07
5.35294e-09
2.60743e-07
1.55871e-06
3.10105e-06
6.57683e-09
1.6656e-07
5.31375e-09
2.59352e-07
2.6863e-08
2.66604e-08
2.65634e-08
2.67297e-08
2.67915e-08
2.65545e-08
2.64737e-08
1.25029e-09
8.69575e-08
1.26548e-08
6.455e-09
1.35178e-09
6.56457e-08
1.25434e-08
1.64742e-06
3.23082e-06
1.40582e-09
1.21876e-08
8.49123e-08
5.95436e-09
1.54155e-09
1.2108e-08
6.34547e-08
2.11359e-07
2.15045e-07
4.98927e-09
1.76632e-07
1.84328e-07
1.46763e-08
4.62464e-07
1.1278e-08
6.8417e-07
6.98008e-06
1.00009e-05
1.54151e-08
4.63084e-07
1.11633e-08
6.91862e-07
2.69736e-08
2.67306e-08
2.66545e-08
2.74938e-08