/*--------------------------------*- C++ -*----------------------------------*\
| =========                 |                                                 |
| \\      /  F ield         | OpenFOAM: The Open Source CFD Toolbox           |
|  \\    /   O peration     | Version:  v1906                                 |
|   \\  /    A nd           | Web:      www.OpenFOAM.com                      |
|    \\/     M anipulation  |                                                 |
\*---------------------------------------------------------------------------*/
FoamFile
{
    version     2.0;
    format      ascii;
    class       volScalarField;
    location    "137.5";
    object      k;
}
// * * * * * * * * * * * * * * * * * * * * * * * * * * * * * * * * * * * * * //

dimensions      [0 2 -2 0 0 0 0];


internalField   nonuniform List<scalar> 
171728
(
3.13823e-06
5.04873e-07
4.88697e-07
3.48753e-07
3.16647e-06
5.16482e-07
5.01274e-07
3.30584e-07
3.26963e-06
5.40004e-07
5.24599e-07
3.20218e-07
3.37166e-06
5.70805e-07
5.53294e-07
3.11775e-07
3.47232e-06
6.05802e-07
5.86288e-07
3.0418e-07
3.57167e-06
6.46743e-07
6.27515e-07
3.01477e-07
3.6704e-06
6.89305e-07
6.75735e-07
3.04749e-07
3.76741e-06
7.38566e-07
7.28356e-07
3.16166e-07
3.8638e-06
7.94236e-07
7.87973e-07
3.35232e-07
3.95637e-06
8.563e-07
8.49548e-07
3.60505e-07
4.04724e-06
9.31623e-07
9.12385e-07
3.88124e-07
4.13628e-06
1.01885e-06
9.65341e-07
4.17139e-07
4.22464e-06
1.12209e-06
1.04883e-06
4.46794e-07
4.31181e-06
1.24216e-06
1.1493e-06
4.8227e-07
4.39797e-06
1.37858e-06
1.26119e-06
5.3087e-07
4.48736e-06
1.54875e-06
1.38774e-06
5.94469e-07
4.57568e-06
1.66347e-06
1.53091e-06
6.73271e-07
4.65471e-06
1.7743e-06
1.68848e-06
7.83651e-07
4.74715e-06
1.92652e-06
1.88427e-06
9.42301e-07
4.8623e-06
2.14222e-06
2.12233e-06
1.1755e-06
4.98069e-06
2.40963e-06
2.42115e-06
1.53872e-06
5.11623e-06
2.78833e-06
2.81049e-06
2.1041e-06
5.26326e-06
3.27078e-06
3.29727e-06
2.95924e-06
5.44585e-06
3.91466e-06
3.93063e-06
4.15738e-06
5.65926e-06
4.68456e-06
4.71822e-06
5.7958e-06
5.94069e-06
5.64368e-06
5.69909e-06
7.78523e-06
6.29104e-06
6.80226e-06
6.86853e-06
1.02477e-05
6.74973e-06
8.25432e-06
8.29172e-06
1.30763e-05
7.34823e-06
1.01731e-05
1.01918e-05
1.62603e-05
8.22138e-06
1.27216e-05
1.27399e-05
1.95224e-05
9.55346e-06
1.59545e-05
1.59668e-05
2.28723e-05
1.12178e-05
1.92971e-05
1.93033e-05
2.59132e-05
1.30397e-05
2.2217e-05
2.22206e-05
2.83303e-05
1.4657e-05
2.42843e-05
2.4287e-05
2.99464e-05
1.56441e-05
2.52752e-05
2.52779e-05
3.06059e-05
1.60684e-05
2.56285e-05
2.56311e-05
3.08293e-05
1.62059e-05
2.57295e-05
2.57319e-05
3.08942e-05
1.62417e-05
2.57548e-05
2.57571e-05
3.0916e-05
1.62485e-05
2.57573e-05
2.57596e-05
3.09138e-05
1.62498e-05
2.57574e-05
2.57597e-05
3.09096e-05
1.62502e-05
2.57585e-05
2.57607e-05
3.09179e-05
1.62502e-05
2.57578e-05
2.57601e-05
3.09078e-05
1.62503e-05
2.57581e-05
2.57604e-05
3.09169e-05
1.62504e-05
2.57582e-05
2.57604e-05
3.09148e-05
1.62506e-05
2.57587e-05
2.57609e-05
3.09119e-05
1.62506e-05
2.57582e-05
2.57605e-05
3.09101e-05
1.62507e-05
2.57584e-05
2.57606e-05
3.09126e-05
1.62507e-05
2.57584e-05
2.57606e-05
3.09141e-05
1.62508e-05
2.57583e-05
2.57605e-05
3.09147e-05
1.62509e-05
2.57587e-05
2.57607e-05
3.09153e-05
1.62509e-05
2.57588e-05
2.57609e-05
3.09186e-05
1.62509e-05
2.57584e-05
2.57606e-05
3.09168e-05
1.62509e-05
2.57585e-05
2.57606e-05
3.09111e-05
1.62509e-05
2.57587e-05
2.57606e-05
3.09174e-05
1.6251e-05
2.57587e-05
2.57604e-05
3.09185e-05
1.6251e-05
2.57585e-05
2.57608e-05
3.09093e-05
1.6251e-05
2.57586e-05
2.57608e-05
3.09116e-05
1.6251e-05
2.57589e-05
2.57606e-05
3.09185e-05
1.6251e-05
2.57588e-05
2.57606e-05
3.09198e-05
1.6251e-05
2.57587e-05
2.57607e-05
3.0918e-05
1.6251e-05
2.57587e-05
2.57606e-05
3.09155e-05
1.6251e-05
2.57588e-05
2.57606e-05
3.0913e-05
1.62511e-05
2.57587e-05
2.57606e-05
3.09108e-05
1.62511e-05
2.57587e-05
2.57605e-05
3.09093e-05
1.6251e-05
2.57586e-05
2.57605e-05
3.09089e-05
1.6251e-05
2.57586e-05
2.57606e-05
3.09088e-05
1.62511e-05
2.57586e-05
2.57605e-05
3.09087e-05
1.6251e-05
2.57586e-05
2.57604e-05
3.09091e-05
1.6251e-05
2.57586e-05
2.57605e-05
3.09097e-05
1.6251e-05
2.57586e-05
2.57605e-05
3.09102e-05
1.6251e-05
2.57586e-05
2.57605e-05
3.09105e-05
1.6251e-05
2.57586e-05
2.57604e-05
3.0911e-05
1.6251e-05
2.57586e-05
2.57604e-05
3.09113e-05
1.6251e-05
2.57585e-05
2.57604e-05
3.09108e-05
1.6251e-05
2.57585e-05
2.57603e-05
3.09104e-05
1.6251e-05
2.57585e-05
2.57604e-05
3.0911e-05
1.6251e-05
2.57585e-05
2.57604e-05
3.09118e-05
1.6251e-05
2.57585e-05
2.57603e-05
3.09113e-05
1.6251e-05
2.57584e-05
2.57603e-05
3.09103e-05
1.6251e-05
2.57584e-05
2.57602e-05
3.09098e-05
1.6251e-05
2.57585e-05
2.57602e-05
3.09102e-05
1.6251e-05
2.57585e-05
2.57603e-05
3.09108e-05
1.6251e-05
2.57586e-05
2.57604e-05
3.09106e-05
1.6251e-05
2.57586e-05
2.57604e-05
3.09103e-05
1.6251e-05
2.57587e-05
2.57605e-05
3.09105e-05
1.6251e-05
2.57589e-05
2.57606e-05
3.09112e-05
1.6251e-05
2.57591e-05
2.57608e-05
3.09113e-05
1.62511e-05
2.57593e-05
2.5761e-05
3.09105e-05
1.62511e-05
2.57596e-05
2.57613e-05
3.09099e-05
1.62511e-05
2.57601e-05
2.57618e-05
3.09103e-05
1.62512e-05
2.57608e-05
2.57626e-05
3.09107e-05
1.62513e-05
2.57621e-05
2.57638e-05
3.09102e-05
1.62513e-05
2.5764e-05
2.57656e-05
3.09097e-05
1.62388e-05
2.5758e-05
2.57595e-05
3.09036e-05
1.59298e-05
2.47864e-05
2.47863e-05
3.0111e-05
3.52833e-07
3.98488e-07
3.99733e-07
3.8241e-07
3.58793e-07
4.19079e-07
3.21173e-06
3.21668e-06
3.21429e-06
3.20147e-06
4.1706e-07
3.43562e-07
3.74527e-07
4.06059e-07
4.01689e-07
3.52818e-07
3.50133e-07
3.40866e-07
4.8577e-07
4.8061e-07
4.91618e-07
4.84655e-07
3.79441e-07
3.67605e-07
4.41111e-07
5.11036e-07
4.53026e-07
5.1864e-07
4.21518e-07
5.12305e-07
4.29613e-07
3.71566e-07
3.61652e-07
4.9002e-07
4.96583e-07
4.95692e-07
3.33834e-07
3.38486e-07
3.32544e-07
4.95698e-07
4.88049e-07
5.09717e-07
5.00485e-07
3.64663e-07
3.55782e-07
4.59505e-07
5.2295e-07
4.81458e-07
5.3687e-07
4.34581e-07
5.34192e-07
4.51469e-07
3.59312e-07
3.55459e-07
4.99939e-07
5.18443e-07
5.15987e-07
3.22774e-07
3.30235e-07
3.25299e-07
5.15225e-07
5.04434e-07
5.32373e-07
5.14337e-07
3.52676e-07
3.44976e-07
4.89058e-07
5.42618e-07
5.13838e-07
5.63526e-07
4.57561e-07
5.63062e-07
4.76871e-07
3.536e-07
3.50954e-07
5.22238e-07
5.45533e-07
5.43176e-07
3.14351e-07
3.23156e-07
3.20511e-07
5.39408e-07
5.187e-07
5.60907e-07
5.35239e-07
3.42116e-07
3.36494e-07
5.22225e-07
5.71513e-07
5.48371e-07
5.97297e-07
4.84064e-07
5.96989e-07
5.07818e-07
3.4908e-07
3.49078e-07
5.50328e-07
5.77822e-07
5.73147e-07
3.06562e-07
3.18894e-07
3.20206e-07
5.68598e-07
5.42813e-07
5.94259e-07
5.68897e-07
3.34096e-07
3.31838e-07
5.58013e-07
6.06847e-07
5.89979e-07
6.37398e-07
5.16787e-07
6.37252e-07
5.46116e-07
3.47696e-07
3.54009e-07
5.81522e-07
6.17694e-07
6.08112e-07
3.03011e-07
3.19088e-07
3.26338e-07
6.0252e-07
5.78782e-07
6.33775e-07
6.11834e-07
3.30113e-07
3.34898e-07
6.01289e-07
6.48891e-07
6.40109e-07
6.85069e-07
5.56617e-07
6.79083e-07
5.92249e-07
3.53137e-07
3.67533e-07
6.18136e-07
6.63469e-07
6.51034e-07
3.05932e-07
3.25336e-07
3.37965e-07
6.44138e-07
6.23089e-07
6.79163e-07
6.63898e-07
3.33746e-07
3.45369e-07
6.53499e-07
6.97416e-07
6.9528e-07
7.38407e-07
6.04563e-07
7.26564e-07
6.46346e-07
3.66901e-07
3.85359e-07
6.62653e-07
7.14713e-07
7.0215e-07
3.17028e-07
3.37152e-07
3.54894e-07
6.92116e-07
6.77589e-07
7.32706e-07
7.24322e-07
3.4426e-07
3.57146e-07
7.10067e-07
7.51096e-07
7.60687e-07
7.9269e-07
6.60735e-07
7.79917e-07
7.08851e-07
3.8475e-07
4.05569e-07
7.15531e-07
7.74098e-07
7.5809e-07
3.35747e-07
3.54203e-07
3.77101e-07
7.4785e-07
7.41448e-07
7.95513e-07
7.92756e-07
3.55912e-07
3.69317e-07
7.77281e-07
8.06378e-07
8.265e-07
8.49109e-07
7.26288e-07
8.40323e-07
7.79469e-07
4.04862e-07
4.21742e-07
7.7307e-07
8.32854e-07
8.19336e-07
3.60908e-07
3.76576e-07
4.02332e-07
8.11623e-07
8.11323e-07
8.63509e-07
8.70592e-07
3.68022e-07
3.87511e-07
8.4432e-07
8.64516e-07
8.96917e-07
9.09283e-07
7.99274e-07
9.11653e-07
8.58678e-07
4.20528e-07
4.35749e-07
8.35425e-07
8.98606e-07
8.83001e-07
3.8858e-07
4.01602e-07
4.27643e-07
8.82209e-07
8.92624e-07
9.38955e-07
9.57884e-07
3.86555e-07
4.14758e-07
9.15559e-07
9.25862e-07
9.77842e-07
9.80761e-07
8.79232e-07
9.95854e-07
9.4507e-07
4.34514e-07
4.53394e-07
8.98775e-07
9.52025e-07
9.49631e-07
4.1771e-07
4.26932e-07
4.56591e-07
9.58361e-07
9.79928e-07
1.02377e-06
1.05386e-06
4.14221e-07
4.52263e-07
9.98653e-07
9.99394e-07
1.06592e-06
1.06234e-06
9.66935e-07
1.09473e-06
1.03565e-06
4.5216e-07
4.69892e-07
9.68085e-07
1.02513e-06
1.02809e-06
4.47317e-07
4.56025e-07
4.91477e-07
1.04641e-06
1.07936e-06
1.12013e-06
1.15664e-06
4.52326e-07
5.01271e-07
1.09031e-06
1.08472e-06
1.16224e-06
1.15478e-06
1.05909e-06
1.21384e-06
1.13209e-06
4.67987e-07
4.84491e-07
1.04986e-06
1.12403e-06
1.12114e-06
4.82236e-07
4.91602e-07
5.42556e-07
1.14827e-06
1.18285e-06
1.23501e-06
1.2626e-06
5.02322e-07
5.62417e-07
1.18793e-06
1.18057e-06
1.28054e-06
1.26296e-06
1.15854e-06
1.33886e-06
1.24073e-06
4.83464e-07
5.22182e-07
1.14653e-06
1.23299e-06
1.22873e-06
5.29573e-07
5.44122e-07
6.07709e-07
1.26367e-06
1.28959e-06
1.36345e-06
1.38163e-06
5.64752e-07
6.38114e-07
1.31106e-06
1.29165e-06
1.40822e-06
1.38752e-06
1.2682e-06
1.51101e-06
1.36131e-06
5.22855e-07
5.82019e-07
1.25704e-06
1.35633e-06
1.35139e-06
5.91831e-07
6.10777e-07
6.98594e-07
1.39874e-06
1.41328e-06
1.50908e-06
1.51407e-06
6.40735e-07
7.06241e-07
1.44521e-06
1.41771e-06
1.57214e-06
1.51512e-06
1.39467e-06
1.63663e-06
1.49628e-06
5.84486e-07
6.61081e-07
1.38458e-06
1.49158e-06
1.48844e-06
6.68623e-07
7.05962e-07
8.17645e-07
1.55189e-06
1.5536e-06
1.67717e-06
1.67473e-06
7.09285e-07
7.8459e-07
1.62297e-06
1.55418e-06
1.76116e-06
1.66565e-06
1.53448e-06
1.74453e-06
1.64763e-06
6.66012e-07
7.64902e-07
1.52729e-06
1.64609e-06
1.64327e-06
7.65703e-07
8.37065e-07
9.6398e-07
1.72044e-06
1.72158e-06
1.86921e-06
1.8836e-06
7.99777e-07
9.27475e-07
1.80468e-06
1.70902e-06
1.93914e-06
1.85637e-06
1.68938e-06
1.8866e-06
1.83589e-06
7.8384e-07
9.18356e-07
1.68663e-06
1.83537e-06
1.83607e-06
9.13306e-07
9.91667e-07
1.17622e-06
1.92189e-06
1.93932e-06
2.10111e-06
2.13524e-06
9.57503e-07
1.15553e-06
1.98133e-06
1.90431e-06
2.12219e-06
2.06523e-06
1.88567e-06
2.08143e-06
2.05508e-06
9.47566e-07
1.13983e-06
1.88775e-06
2.05673e-06
2.0598e-06
1.13003e-06
1.22432e-06
1.53963e-06
2.17098e-06
2.21059e-06
2.4011e-06
2.4397e-06
1.20391e-06
1.50149e-06
2.17634e-06
2.12755e-06
2.35813e-06
2.33454e-06
2.12326e-06
2.33637e-06
2.34132e-06
1.18634e-06
1.47512e-06
2.12724e-06
2.34138e-06
2.348e-06
1.4648e-06
1.61856e-06
2.07129e-06
2.48403e-06
2.5189e-06
2.76937e-06
2.78923e-06
1.57501e-06
2.00481e-06
2.42817e-06
2.41124e-06
2.68438e-06
2.68328e-06
2.42101e-06
2.6842e-06
2.71347e-06
1.54861e-06
1.99377e-06
2.42864e-06
2.70299e-06
2.72177e-06
1.98501e-06
2.18876e-06
2.85669e-06
2.87804e-06
2.8899e-06
3.23448e-06
3.20828e-06
2.1157e-06
2.76192e-06
2.78653e-06
2.78986e-06
3.13254e-06
3.1412e-06
2.824e-06
3.13772e-06
3.18105e-06
2.11123e-06
2.78191e-06
2.8336e-06
3.16606e-06
3.19371e-06
2.78386e-06
3.03152e-06
3.97816e-06
3.3657e-06
3.32292e-06
3.81899e-06
3.72736e-06
2.93479e-06
3.8775e-06
3.2628e-06
3.27085e-06
3.71752e-06
3.72161e-06
3.31797e-06
3.74153e-06
3.79271e-06
2.95652e-06
3.90153e-06
3.32967e-06
3.75809e-06
3.80447e-06
3.91292e-06
4.2229e-06
5.51576e-06
3.99074e-06
3.88624e-06
4.56423e-06
4.43075e-06
4.11864e-06
5.41054e-06
3.8895e-06
3.89196e-06
4.45575e-06
4.45641e-06
3.96725e-06
4.47869e-06
4.54214e-06
4.14551e-06
5.45107e-06
3.98061e-06
4.50619e-06
4.5564e-06
5.46779e-06
5.84132e-06
7.50213e-06
4.77664e-06
4.63543e-06
5.49976e-06
5.33536e-06
5.73961e-06
7.41168e-06
4.66325e-06
4.66465e-06
5.3615e-06
5.36583e-06
4.75229e-06
5.38451e-06
5.43814e-06
5.78085e-06
7.45783e-06
4.76832e-06
5.43497e-06
5.47768e-06
7.3998e-06
7.90586e-06
9.86368e-06
5.77114e-06
5.59834e-06
6.64809e-06
6.46593e-06
7.81438e-06
9.78434e-06
5.62042e-06
5.62674e-06
6.46705e-06
6.49023e-06
5.68879e-06
6.49495e-06
6.51922e-06
7.86289e-06
9.84979e-06
5.73892e-06
6.56161e-06
6.58443e-06
9.76642e-06
1.03247e-05
1.25385e-05
6.95523e-06
6.78053e-06
7.96701e-06
7.84092e-06
1.02551e-05
1.25204e-05
6.77427e-06
6.80478e-06
7.82147e-06
7.86283e-06
6.82368e-06
7.851e-06
7.86322e-06
1.03211e-05
1.25557e-05
6.88684e-06
7.89718e-06
7.91091e-06
1.25357e-05
1.30723e-05
1.56506e-05
8.3546e-06
8.24652e-06
9.70941e-06
9.64016e-06
1.30607e-05
1.56426e-05
8.22633e-06
8.26652e-06
9.62346e-06
9.65463e-06
8.26498e-06
9.64781e-06
9.65085e-06
1.30865e-05
1.56451e-05
8.30744e-06
9.66824e-06
9.67957e-06
1.5662e-05
1.62512e-05
1.89145e-05
1.02273e-05
1.01667e-05
1.2044e-05
1.20061e-05
1.62421e-05
1.89028e-05
1.01523e-05
1.01801e-05
1.19978e-05
1.20177e-05
1.01751e-05
1.20088e-05
1.20085e-05
1.62443e-05
1.89124e-05
1.01994e-05
1.20272e-05
1.20205e-05
1.89117e-05
1.95267e-05
2.22604e-05
1.2752e-05
1.27211e-05
1.51278e-05
1.51142e-05
1.95153e-05
2.22541e-05
1.27145e-05
1.27326e-05
1.51097e-05
1.51237e-05
1.27225e-05
1.51115e-05
1.51138e-05
1.95258e-05
2.22658e-05
1.27312e-05
1.51258e-05
1.51157e-05
2.22585e-05
2.28738e-05
2.53839e-05
1.5968e-05
1.59581e-05
1.84902e-05
1.84876e-05
2.28686e-05
2.53815e-05
1.59541e-05
1.59668e-05
1.84835e-05
1.84926e-05
1.59577e-05
1.8483e-05
1.84872e-05
2.28792e-05
2.53879e-05
1.59583e-05
1.84902e-05
1.84855e-05
2.53849e-05
2.59123e-05
2.79209e-05
1.93036e-05
1.9302e-05
2.15535e-05
2.15534e-05
2.59103e-05
2.79189e-05
1.92982e-05
1.93061e-05
2.15501e-05
2.15556e-05
1.9302e-05
2.15491e-05
2.15545e-05
2.59157e-05
2.79228e-05
1.92999e-05
2.15532e-05
2.15518e-05
2.79227e-05
2.83288e-05
2.9688e-05
2.22209e-05
2.2221e-05
2.38763e-05
2.38766e-05
2.8327e-05
2.96861e-05
2.22182e-05
2.22229e-05
2.38742e-05
2.38777e-05
2.22223e-05
2.38732e-05
2.38781e-05
2.83303e-05
2.96887e-05
2.22198e-05
2.38759e-05
2.3876e-05
2.96896e-05
2.9945e-05
3.04934e-05
2.42874e-05
2.42876e-05
2.51104e-05
2.51106e-05
2.99433e-05
3.04916e-05
2.42854e-05
2.42886e-05
2.51088e-05
2.51112e-05
2.42893e-05
2.51076e-05
2.51128e-05
2.99455e-05
3.04942e-05
2.42872e-05
2.51103e-05
2.51108e-05
3.04956e-05
3.06038e-05
3.07676e-05
2.52777e-05
2.52779e-05
2.55773e-05
2.55775e-05
3.06021e-05
3.07659e-05
2.52763e-05
2.52785e-05
2.5576e-05
2.5578e-05
2.52801e-05
2.55749e-05
2.55797e-05
3.06044e-05
3.07681e-05
2.52782e-05
2.55774e-05
2.5578e-05
3.07695e-05
3.08274e-05
3.08505e-05
2.56308e-05
2.56309e-05
2.57174e-05
2.57176e-05
3.08257e-05
3.08488e-05
2.56296e-05
2.56314e-05
2.57163e-05
2.5718e-05
2.56331e-05
2.57152e-05
2.57197e-05
3.08277e-05
3.08509e-05
2.56315e-05
2.57175e-05
2.57181e-05
3.08523e-05
3.08923e-05
3.08766e-05
2.57317e-05
2.57318e-05
2.57539e-05
2.5754e-05
3.08907e-05
3.08749e-05
2.57306e-05
2.57323e-05
2.57527e-05
2.57544e-05
2.57339e-05
2.57516e-05
2.5756e-05
3.08925e-05
3.08768e-05
2.57324e-05
2.57539e-05
2.57545e-05
3.08782e-05
3.09144e-05
3.08771e-05
2.57569e-05
2.5757e-05
2.57596e-05
2.57597e-05
3.09128e-05
3.08754e-05
2.57558e-05
2.57575e-05
2.57585e-05
2.57602e-05
2.5759e-05
2.57573e-05
2.57617e-05
3.09145e-05
3.08775e-05
2.57575e-05
2.57596e-05
2.57601e-05
3.08787e-05
3.09122e-05
3.08716e-05
2.57595e-05
2.57596e-05
2.57594e-05
2.57595e-05
3.09106e-05
3.08698e-05
2.57584e-05
2.57601e-05
2.57584e-05
2.57601e-05
2.57616e-05
2.57572e-05
2.57615e-05
3.09124e-05
3.0872e-05
2.576e-05
2.57595e-05
2.57599e-05
3.08732e-05
3.0908e-05
3.08795e-05
2.57595e-05
2.57596e-05
2.57607e-05
2.57609e-05
3.09063e-05
3.0878e-05
2.57585e-05
2.57602e-05
2.57597e-05
2.57614e-05
2.57616e-05
2.57585e-05
2.57627e-05
3.09082e-05
3.08799e-05
2.576e-05
2.57607e-05
2.57612e-05
3.08812e-05
3.09163e-05
3.08704e-05
2.57606e-05
2.57608e-05
2.576e-05
2.57602e-05
3.09149e-05
3.08686e-05
2.57597e-05
2.57613e-05
2.57591e-05
2.57607e-05
2.57626e-05
2.57578e-05
2.57622e-05
3.09165e-05
3.08706e-05
2.57611e-05
2.57601e-05
2.57606e-05
3.0872e-05
3.09056e-05
3.08815e-05
2.57599e-05
2.57602e-05
2.57602e-05
2.57604e-05
3.0904e-05
3.08797e-05
2.57591e-05
2.57607e-05
2.57594e-05
2.57609e-05
2.57622e-05
2.57581e-05
2.57623e-05
3.09061e-05
3.08811e-05
2.57606e-05
2.57603e-05
2.57609e-05
3.0882e-05
3.09168e-05
3.08734e-05
2.57602e-05
2.57604e-05
2.57602e-05
2.57604e-05
3.09148e-05
3.08726e-05
2.57594e-05
2.57609e-05
2.57594e-05
2.5761e-05
2.57623e-05
2.57581e-05
2.57624e-05
3.09158e-05
3.08759e-05
2.57608e-05
2.57604e-05
2.57609e-05
3.08766e-05
3.0912e-05
3.0873e-05
2.57602e-05
2.57604e-05
2.57603e-05
2.57605e-05
3.09116e-05
3.08706e-05
2.57593e-05
2.57609e-05
2.57595e-05
2.57611e-05
2.57623e-05
2.57584e-05
2.57625e-05
3.09144e-05
3.08736e-05
2.57608e-05
2.57605e-05
2.57609e-05
3.08747e-05
3.09095e-05
3.0875e-05
2.57603e-05
2.57607e-05
2.57603e-05
2.57605e-05
3.09084e-05
3.08704e-05
2.57596e-05
2.57612e-05
2.57595e-05
2.5761e-05
2.57627e-05
2.57581e-05
2.57623e-05
3.09123e-05
3.08714e-05
2.57611e-05
2.57604e-05
2.57608e-05
3.0875e-05
3.09098e-05
3.08792e-05
2.57603e-05
2.57606e-05
2.57605e-05
2.57606e-05
3.09061e-05
3.08742e-05
2.57595e-05
2.57611e-05
2.57595e-05
2.57611e-05
2.57623e-05
2.57584e-05
2.57625e-05
3.09091e-05
3.08723e-05
2.57608e-05
2.57606e-05
2.5761e-05
3.08786e-05
3.09145e-05
3.08784e-05
2.57604e-05
2.57606e-05
2.57608e-05
2.57607e-05
3.09082e-05
3.08767e-05
2.57595e-05
2.57612e-05
2.57596e-05
2.57611e-05
2.57625e-05
2.57584e-05
2.57625e-05
3.09087e-05
3.0872e-05
2.5761e-05
2.57605e-05
2.57609e-05
3.08798e-05
3.09164e-05
3.08756e-05
2.57605e-05
2.57606e-05
2.57609e-05
2.5761e-05
3.09107e-05
3.08782e-05
2.57594e-05
2.5761e-05
2.57598e-05
2.57614e-05
2.57625e-05
2.57586e-05
2.57627e-05
3.09077e-05
3.08732e-05
2.57609e-05
2.57606e-05
2.57612e-05
3.08803e-05
3.09153e-05
3.08732e-05
2.57609e-05
2.57607e-05
2.57608e-05
2.5761e-05
3.09128e-05
3.08787e-05
2.57597e-05
2.57612e-05
2.57597e-05
2.57613e-05
2.57625e-05
2.57588e-05
2.57628e-05
3.09077e-05
3.08745e-05
2.57609e-05
2.57608e-05
2.57613e-05
3.08814e-05
3.09137e-05
3.08712e-05
2.57609e-05
2.57609e-05
2.57608e-05
2.57608e-05
3.09145e-05
3.0877e-05
2.57598e-05
2.57614e-05
2.57595e-05
2.57611e-05
2.57627e-05
2.57586e-05
2.57627e-05
3.09091e-05
3.08731e-05
2.57611e-05
2.57606e-05
2.57612e-05
3.08831e-05
3.09113e-05
3.08705e-05
2.57609e-05
2.57609e-05
2.57608e-05
2.57608e-05
3.09134e-05
3.08773e-05
2.57596e-05
2.57612e-05
2.57595e-05
2.57612e-05
2.57626e-05
2.57584e-05
2.57626e-05
3.09082e-05
3.08735e-05
2.57612e-05
2.57605e-05
2.5761e-05
3.08786e-05
3.09079e-05
3.08726e-05
2.57608e-05
2.57608e-05
2.57609e-05
2.5761e-05
3.09121e-05
3.08791e-05
2.57595e-05
2.57611e-05
2.57596e-05
2.57613e-05
2.57626e-05
2.57588e-05
2.57628e-05
3.09076e-05
3.08744e-05
2.5761e-05
2.57606e-05
2.57611e-05
3.08766e-05
3.09093e-05
3.08725e-05
2.57608e-05
2.57608e-05
2.57612e-05
2.5761e-05
3.09145e-05
3.08757e-05
2.57594e-05
2.57612e-05
2.57597e-05
2.57613e-05
2.57626e-05
2.57587e-05
2.57628e-05
3.09086e-05
3.08725e-05
2.57609e-05
2.57606e-05
2.57613e-05
3.08837e-05
3.09113e-05
3.087e-05
2.5761e-05
2.57609e-05
2.5761e-05
2.5761e-05
3.09115e-05
3.08777e-05
2.57596e-05
2.57612e-05
2.57595e-05
2.57614e-05
2.57627e-05
2.57587e-05
2.57627e-05
3.09062e-05
3.08777e-05
2.5761e-05
2.57606e-05
2.57611e-05
3.08799e-05
3.09067e-05
3.08774e-05
2.57611e-05
2.57609e-05
2.57611e-05
2.57609e-05
3.09102e-05
3.08808e-05
2.57596e-05
2.57612e-05
2.57596e-05
2.57614e-05
2.57627e-05
2.57585e-05
2.57626e-05
3.09097e-05
3.08829e-05
2.57612e-05
2.57608e-05
2.57609e-05
3.08724e-05
3.09117e-05
3.08802e-05
2.57611e-05
2.57609e-05
2.57611e-05
2.57609e-05
3.0915e-05
3.08785e-05
2.57596e-05
2.57613e-05
2.57595e-05
2.57612e-05
2.57626e-05
2.57589e-05
2.57627e-05
3.09184e-05
3.08779e-05
2.5761e-05
2.57605e-05
2.57609e-05
3.08792e-05
3.0918e-05
3.08759e-05
2.57611e-05
2.57609e-05
2.57612e-05
2.5761e-05
3.09168e-05
3.08709e-05
2.57595e-05
2.57613e-05
2.57595e-05
2.57612e-05
2.57625e-05
2.57588e-05
2.57629e-05
3.09174e-05
3.08709e-05
2.57609e-05
2.57605e-05
2.57609e-05
3.08838e-05
3.09162e-05
3.08704e-05
2.57611e-05
2.5761e-05
2.57612e-05
2.5761e-05
3.09122e-05
3.08675e-05
2.57594e-05
2.57612e-05
2.57597e-05
2.57613e-05
2.57627e-05
2.57586e-05
2.57627e-05
3.09118e-05
3.087e-05
2.57608e-05
2.57607e-05
2.57612e-05
3.08818e-05
3.09108e-05
3.08699e-05
2.57612e-05
2.5761e-05
2.57611e-05
2.57609e-05
3.09049e-05
3.08711e-05
2.57596e-05
2.57612e-05
2.57594e-05
2.57613e-05
2.57627e-05
2.57586e-05
2.57627e-05
3.09061e-05
3.08744e-05
2.57609e-05
2.57606e-05
2.57611e-05
3.08776e-05
3.09057e-05
3.08738e-05
2.57611e-05
2.57608e-05
2.57614e-05
2.57612e-05
3.09045e-05
3.08786e-05
2.57596e-05
2.57612e-05
2.57593e-05
2.57613e-05
2.57627e-05
2.57588e-05
2.57626e-05
3.09078e-05
3.08774e-05
2.57611e-05
2.57605e-05
2.5761e-05
3.0874e-05
3.09069e-05
3.08803e-05
2.57612e-05
2.57609e-05
2.57613e-05
2.5761e-05
3.09114e-05
3.08772e-05
2.57594e-05
2.57613e-05
2.57594e-05
2.57612e-05
2.57627e-05
2.57587e-05
2.57626e-05
3.09118e-05
3.08729e-05
2.57609e-05
2.57606e-05
2.5761e-05
3.08722e-05
3.09123e-05
3.08817e-05
2.57613e-05
2.57612e-05
2.57613e-05
2.57608e-05
3.09129e-05
3.08714e-05
2.57593e-05
2.57613e-05
2.57596e-05
2.57612e-05
2.57626e-05
2.57586e-05
2.57628e-05
3.09105e-05
3.08701e-05
2.57609e-05
2.57605e-05
2.57609e-05
3.08715e-05
3.09171e-05
3.08774e-05
2.57613e-05
2.57609e-05
2.57613e-05
2.5761e-05
3.09074e-05
3.08699e-05
2.57594e-05
2.57612e-05
2.57594e-05
2.57612e-05
2.57627e-05
2.57586e-05
2.57627e-05
3.09079e-05
3.08708e-05
2.57609e-05
2.57605e-05
2.57609e-05
3.08716e-05
3.09133e-05
3.08767e-05
2.57612e-05
2.57609e-05
2.57614e-05
2.57611e-05
3.09049e-05
3.08702e-05
2.57594e-05
2.57611e-05
2.57594e-05
2.57612e-05
2.57627e-05
2.57586e-05
2.57627e-05
3.0906e-05
3.08731e-05
2.5761e-05
2.57605e-05
2.57608e-05
3.0872e-05
3.09091e-05
3.08777e-05
2.57613e-05
2.5761e-05
2.57614e-05
2.5761e-05
3.09047e-05
3.08712e-05
2.57593e-05
2.57612e-05
2.57594e-05
2.57612e-05
2.57627e-05
2.57585e-05
2.57626e-05
3.09067e-05
3.08757e-05
2.57609e-05
2.57605e-05
2.57608e-05
3.0872e-05
3.09098e-05
3.08801e-05
2.57613e-05
2.5761e-05
2.57614e-05
2.5761e-05
3.09049e-05
3.08728e-05
2.57593e-05
2.57611e-05
2.57595e-05
2.57613e-05
2.57626e-05
2.57586e-05
2.57626e-05
3.09083e-05
3.08776e-05
2.57608e-05
2.57605e-05
2.57608e-05
3.0872e-05
3.09126e-05
3.08802e-05
2.57614e-05
2.5761e-05
2.57614e-05
2.5761e-05
3.09059e-05
3.08745e-05
2.57593e-05
2.57611e-05
2.57596e-05
2.57614e-05
2.57626e-05
2.57586e-05
2.57627e-05
3.09099e-05
3.08781e-05
2.57608e-05
2.57605e-05
2.57609e-05
3.08722e-05
3.09133e-05
3.08796e-05
2.57614e-05
2.57609e-05
2.57613e-05
2.5761e-05
3.0907e-05
3.08762e-05
2.57594e-05
2.57612e-05
2.57595e-05
2.57613e-05
2.57627e-05
2.57586e-05
2.57627e-05
3.09104e-05
3.0878e-05
2.57608e-05
2.57606e-05
2.5761e-05
3.08722e-05
3.09121e-05
3.08806e-05
2.57613e-05
2.57609e-05
2.57614e-05
2.5761e-05
3.09083e-05
3.08784e-05
2.57594e-05
2.57612e-05
2.57594e-05
2.57612e-05
2.57627e-05
2.57586e-05
2.57627e-05
3.09102e-05
3.08787e-05
2.57609e-05
2.57605e-05
2.57609e-05
3.0872e-05
3.09132e-05
3.08815e-05
2.57612e-05
2.57608e-05
2.57615e-05
2.5761e-05
3.09108e-05
3.08794e-05
2.57593e-05
2.57611e-05
2.57595e-05
2.57614e-05
2.57627e-05
2.57586e-05
2.57627e-05
3.09108e-05
3.08798e-05
2.57609e-05
2.57605e-05
2.57608e-05
3.0872e-05
3.09156e-05
3.08807e-05
2.57613e-05
2.57609e-05
2.57615e-05
2.5761e-05
3.09133e-05
3.08787e-05
2.57593e-05
2.57612e-05
2.57595e-05
2.57613e-05
2.57627e-05
2.57586e-05
2.57627e-05
3.09124e-05
3.08797e-05
2.57609e-05
2.57604e-05
2.57608e-05
3.08721e-05
3.09158e-05
3.08802e-05
2.57613e-05
2.57609e-05
2.57614e-05
2.57609e-05
3.09134e-05
3.08782e-05
2.57594e-05
2.57613e-05
2.57594e-05
2.57613e-05
2.57627e-05
2.57586e-05
2.57628e-05
3.09127e-05
3.08791e-05
2.57609e-05
2.57604e-05
2.57608e-05
3.08719e-05
3.09145e-05
3.08797e-05
2.57613e-05
2.57609e-05
2.57613e-05
2.57609e-05
3.09117e-05
3.08783e-05
2.57593e-05
2.57613e-05
2.57594e-05
2.57612e-05
2.57628e-05
2.57585e-05
2.57627e-05
3.09116e-05
3.08796e-05
2.57608e-05
2.57604e-05
2.57608e-05
3.08717e-05
3.09127e-05
3.08792e-05
2.57612e-05
2.57608e-05
2.57613e-05
2.5761e-05
3.09109e-05
3.08786e-05
2.57593e-05
2.57612e-05
2.57593e-05
2.57612e-05
2.57627e-05
2.57585e-05
2.57627e-05
3.09119e-05
3.08805e-05
2.57608e-05
2.57604e-05
2.57608e-05
3.08719e-05
3.09115e-05
3.0879e-05
2.57612e-05
2.57608e-05
2.57613e-05
2.57609e-05
3.09117e-05
3.08783e-05
2.57593e-05
2.57612e-05
2.57593e-05
2.57612e-05
2.57627e-05
2.57585e-05
2.57626e-05
3.09136e-05
3.08805e-05
2.57608e-05
2.57604e-05
2.57608e-05
3.08722e-05
3.09113e-05
3.08792e-05
2.57613e-05
2.57608e-05
2.57613e-05
2.57609e-05
3.09115e-05
3.08784e-05
2.57592e-05
2.57611e-05
2.57592e-05
2.57611e-05
2.57626e-05
2.57584e-05
2.57625e-05
3.09143e-05
3.08801e-05
2.57608e-05
2.57602e-05
2.57607e-05
3.08721e-05
3.09115e-05
3.088e-05
2.57613e-05
2.57609e-05
2.57612e-05
2.57608e-05
3.09114e-05
3.08787e-05
2.57592e-05
2.57611e-05
2.57592e-05
2.57611e-05
2.57626e-05
2.57584e-05
2.57625e-05
3.0914e-05
3.08797e-05
2.57608e-05
2.57602e-05
2.57606e-05
3.08716e-05
3.09124e-05
3.0881e-05
2.57612e-05
2.57608e-05
2.57612e-05
2.57608e-05
3.09121e-05
3.08783e-05
2.57592e-05
2.57611e-05
2.57592e-05
2.5761e-05
2.57625e-05
2.57583e-05
2.57624e-05
3.09133e-05
3.08791e-05
2.57607e-05
2.57601e-05
2.57605e-05
3.08714e-05
3.09142e-05
3.08814e-05
2.57612e-05
2.57608e-05
2.57612e-05
2.57607e-05
3.09118e-05
3.08777e-05
2.57592e-05
2.5761e-05
2.57591e-05
2.5761e-05
2.57625e-05
2.57583e-05
2.57623e-05
3.09119e-05
3.08785e-05
2.57606e-05
2.576e-05
2.57604e-05
3.08716e-05
3.09159e-05
3.08803e-05
2.57612e-05
2.57608e-05
2.5761e-05
2.57606e-05
3.09104e-05
3.08773e-05
2.57592e-05
2.5761e-05
2.57591e-05
2.57609e-05
2.57624e-05
2.57582e-05
2.57623e-05
3.09107e-05
3.08794e-05
2.57606e-05
2.576e-05
2.57604e-05
3.08719e-05
3.09156e-05
3.08797e-05
2.57612e-05
2.57607e-05
2.5761e-05
2.57605e-05
3.09095e-05
3.0878e-05
2.57592e-05
2.5761e-05
2.5759e-05
2.57608e-05
2.57624e-05
2.57582e-05
2.57622e-05
3.09116e-05
3.08801e-05
2.57606e-05
2.576e-05
2.57604e-05
3.08718e-05
3.09137e-05
3.08792e-05
2.57612e-05
2.57607e-05
2.57609e-05
2.57605e-05
3.09105e-05
3.08788e-05
2.57592e-05
2.5761e-05
2.57589e-05
2.57608e-05
2.57625e-05
2.57581e-05
2.57621e-05
3.09133e-05
3.08792e-05
2.57606e-05
2.576e-05
2.57603e-05
3.08715e-05
3.09118e-05
3.08788e-05
2.57612e-05
2.57608e-05
2.57608e-05
2.57604e-05
3.09121e-05
3.08786e-05
2.57592e-05
2.57611e-05
2.57588e-05
2.57607e-05
2.57625e-05
2.57581e-05
2.57621e-05
3.09124e-05
3.08782e-05
2.57607e-05
2.57598e-05
2.57602e-05
3.08715e-05
3.09112e-05
3.08792e-05
2.57613e-05
2.57608e-05
2.57607e-05
2.57603e-05
3.09125e-05
3.08783e-05
2.57593e-05
2.57611e-05
2.57588e-05
2.57606e-05
2.57626e-05
2.5758e-05
2.5762e-05
3.09106e-05
3.08789e-05
2.57607e-05
2.57597e-05
2.57601e-05
3.08718e-05
3.09115e-05
3.08803e-05
2.57613e-05
2.57609e-05
2.57607e-05
2.57603e-05
3.09117e-05
3.08781e-05
2.57593e-05
2.57612e-05
2.57587e-05
2.57606e-05
2.57627e-05
2.57579e-05
2.57619e-05
3.09112e-05
3.08803e-05
2.57608e-05
2.57597e-05
2.57601e-05
3.08718e-05
3.0913e-05
3.08809e-05
2.57615e-05
2.5761e-05
2.57607e-05
2.57602e-05
3.09112e-05
3.08781e-05
2.57595e-05
2.57613e-05
2.57587e-05
2.57605e-05
2.57628e-05
2.57579e-05
2.57619e-05
3.09136e-05
3.08799e-05
2.57609e-05
2.57596e-05
2.576e-05
3.08715e-05
3.09147e-05
3.08805e-05
2.57617e-05
2.57612e-05
2.57605e-05
2.57602e-05
3.09112e-05
3.08783e-05
2.57597e-05
2.57615e-05
2.57586e-05
2.57604e-05
2.5763e-05
2.57578e-05
2.57618e-05
3.0914e-05
3.08791e-05
2.57611e-05
2.57595e-05
2.57599e-05
3.08712e-05
3.09151e-05
3.08799e-05
2.5762e-05
2.57615e-05
2.57604e-05
2.57601e-05
3.09116e-05
3.08782e-05
2.57599e-05
2.57618e-05
2.57585e-05
2.57603e-05
2.57632e-05
2.57577e-05
2.57617e-05
3.09125e-05
3.08787e-05
2.57613e-05
2.57594e-05
2.57597e-05
3.08713e-05
3.09143e-05
3.08794e-05
2.57623e-05
2.57619e-05
2.57604e-05
2.576e-05
3.09117e-05
3.08778e-05
2.57603e-05
2.57621e-05
2.57584e-05
2.57603e-05
2.57635e-05
2.57576e-05
2.57616e-05
3.09114e-05
3.08788e-05
2.57616e-05
2.57594e-05
2.57597e-05
3.08715e-05
3.09127e-05
3.08792e-05
2.57627e-05
2.57623e-05
2.57604e-05
2.576e-05
3.0911e-05
3.08778e-05
2.57608e-05
2.57626e-05
2.57585e-05
2.57603e-05
2.5764e-05
2.57577e-05
2.57617e-05
3.09115e-05
3.08793e-05
2.57621e-05
2.57594e-05
2.57598e-05
3.08715e-05
3.09119e-05
3.088e-05
2.57635e-05
2.5763e-05
2.57607e-05
2.57604e-05
3.09107e-05
3.08786e-05
2.57615e-05
2.57633e-05
2.57588e-05
2.57607e-05
2.57648e-05
2.57581e-05
2.5762e-05
3.09121e-05
3.088e-05
2.57628e-05
2.57597e-05
2.576e-05
3.08716e-05
3.09126e-05
3.08815e-05
2.57647e-05
2.57643e-05
2.57616e-05
2.57612e-05
3.09114e-05
3.08802e-05
2.57627e-05
2.57646e-05
2.57597e-05
2.57616e-05
2.5766e-05
2.57589e-05
2.57628e-05
3.09129e-05
3.08814e-05
2.5764e-05
2.57605e-05
2.57608e-05
3.08722e-05
3.0914e-05
3.08784e-05
2.57665e-05
2.57662e-05
2.57556e-05
2.57553e-05
3.09132e-05
3.08778e-05
2.57647e-05
2.57665e-05
2.57536e-05
2.57555e-05
2.57678e-05
2.5753e-05
2.57567e-05
3.0914e-05
3.0878e-05
2.57658e-05
2.57544e-05
2.57547e-05
3.08689e-05
3.09086e-05
3.05161e-05
2.57607e-05
2.57604e-05
2.53504e-05
2.53499e-05
3.09085e-05
3.05152e-05
2.57587e-05
2.57606e-05
2.53499e-05
2.53487e-05
2.57619e-05
2.53503e-05
2.5351e-05
3.0908e-05
3.05155e-05
2.57598e-05
2.53503e-05
2.53505e-05
3.05161e-05
3.01085e-05
2.47859e-05
2.47855e-05
3.01081e-05
2.47858e-05
2.47842e-05
1.59296e-05
1.5929e-05
1.59298e-05
2.47865e-05
3.01082e-05
2.47865e-05
7.67711e-06
1.38773e-06
5.27612e-06
5.28013e-06
8.62145e-08
4.22223e-07
4.62797e-07
3.2912e-06
9.71295e-08
4.11428e-07
3.27124e-06
4.44603e-07
3.63487e-07
2.92528e-07
2.70023e-07
2.63782e-07
4.97743e-06
2.33532e-07
6.65741e-06
1.36897e-05
2.12105e-05
2.82696e-07
5.0108e-06
2.48461e-07
6.6365e-06
3.14365e-06
3.14178e-06
3.12777e-06
3.14193e-06
3.14722e-06
3.14516e-06
3.13119e-06
8.58493e-08
7.35814e-07
1.48706e-06
5.05415e-07
8.62906e-08
7.08269e-07
1.47811e-06
1.42047e-05
2.1793e-05
9.33484e-08
1.47165e-06
6.96966e-07
4.89126e-07
9.41835e-08
1.47108e-06
6.66508e-07
1.77211e-06
1.88733e-06
3.41795e-07
1.74663e-06
1.86598e-06
4.50192e-07
9.75312e-06
3.65153e-07
1.2659e-05
3.64015e-05
4.62647e-05
4.70515e-07
9.76143e-06
3.82618e-07
1.27533e-05
3.1719e-06
3.16959e-06
3.1561e-06
3.2443e-06
3.24906e-06