/*--------------------------------*- C++ -*----------------------------------*\
| =========                 |                                                 |
| \\      /  F ield         | OpenFOAM: The Open Source CFD Toolbox           |
|  \\    /   O peration     | Version:  v1906                                 |
|   \\  /    A nd           | Web:      www.OpenFOAM.com                      |
|    \\/     M anipulation  |                                                 |
\*---------------------------------------------------------------------------*/
FoamFile
{
    version     2.0;
    format      ascii;
    class       volScalarField;
    location    "137.5";
    object      nut;
}
// * * * * * * * * * * * * * * * * * * * * * * * * * * * * * * * * * * * * * //

dimensions      [0 2 -1 0 0 0 0];


internalField   nonuniform List<scalar> 
171728
(
3.30656e-05
3.52376e-06
3.5745e-06
2.12505e-06
3.35385e-05
3.77422e-06
3.86358e-06
2.09683e-06
3.47521e-05
4.16445e-06
4.28695e-06
2.12735e-06
3.59186e-05
4.63628e-06
4.76844e-06
2.16308e-06
3.70459e-05
5.12727e-06
5.30004e-06
2.19156e-06
3.81323e-05
5.65205e-06
5.92827e-06
2.25435e-06
3.92006e-05
6.14114e-06
6.62216e-06
2.37102e-06
4.02287e-05
6.66336e-06
7.33809e-06
2.58506e-06
4.12371e-05
7.19631e-06
8.13448e-06
2.90389e-06
4.21726e-05
7.7402e-06
8.87073e-06
3.28442e-06
4.30859e-05
8.40442e-06
9.67368e-06
3.66444e-06
4.39533e-05
9.17864e-06
1.00891e-05
4.02873e-06
4.48241e-05
1.01355e-05
1.08275e-05
4.34754e-06
4.5649e-05
1.13301e-05
1.1771e-05
4.63779e-06
4.64758e-05
1.27338e-05
1.27384e-05
4.98918e-06
4.73713e-05
1.4795e-05
1.37719e-05
5.38762e-06
4.82851e-05
1.58937e-05
1.47556e-05
5.74536e-06
4.90307e-05
1.65973e-05
1.56053e-05
6.17613e-06
4.98922e-05
1.71504e-05
1.65847e-05
6.70652e-06
5.09163e-05
1.79022e-05
1.75003e-05
7.43731e-06
5.19637e-05
1.86333e-05
1.85362e-05
8.55701e-06
5.30474e-05
1.98924e-05
1.97863e-05
1.03027e-05
5.40259e-05
2.10903e-05
2.12745e-05
1.29952e-05
5.52013e-05
2.33538e-05
2.33823e-05
1.66958e-05
5.64125e-05
2.59744e-05
2.60414e-05
2.20514e-05
5.80519e-05
2.96283e-05
2.97738e-05
2.86476e-05
6.00312e-05
3.40434e-05
3.44173e-05
3.6528e-05
6.18263e-05
3.88675e-05
3.91089e-05
4.529e-05
6.31237e-05
4.49828e-05
4.50613e-05
5.5253e-05
6.46591e-05
5.3451e-05
5.35383e-05
6.57529e-05
6.98951e-05
6.59333e-05
6.59999e-05
7.73341e-05
7.83167e-05
8.02998e-05
8.03276e-05
8.89416e-05
8.96162e-05
9.44129e-05
9.44227e-05
9.91881e-05
0.000102032
0.000105978
0.00010598
0.000107043
0.000110858
0.000112201
0.000112204
0.000110515
0.000115031
0.000114577
0.000114579
0.000111755
0.000116463
0.000115284
0.000115285
0.000112119
0.000116851
0.000115468
0.000115468
0.00011225
0.000116929
0.000115492
0.000115492
0.000112252
0.000116942
0.000115492
0.000115492
0.00011222
0.000116946
0.0001155
0.000115499
0.00011227
0.000116945
0.000115495
0.000115495
0.000112208
0.000116946
0.000115497
0.000115496
0.00011227
0.000116947
0.000115498
0.000115496
0.000112249
0.000116948
0.000115501
0.000115499
0.00011223
0.000116949
0.000115497
0.000115496
0.000112223
0.000116949
0.000115499
0.000115497
0.000112242
0.000116949
0.000115499
0.000115497
0.000112253
0.00011695
0.000115498
0.000115496
0.000112256
0.000116951
0.000115501
0.000115498
0.000112263
0.000116951
0.000115502
0.000115499
0.000112286
0.000116951
0.000115499
0.000115497
0.000112263
0.000116951
0.0001155
0.000115497
0.000112231
0.000116951
0.000115501
0.000115497
0.000112279
0.000116951
0.000115501
0.000115496
0.00011227
0.000116951
0.000115499
0.000115499
0.000112204
0.000116951
0.0001155
0.000115499
0.000112233
0.000116951
0.000115503
0.000115497
0.000112292
0.000116951
0.000115502
0.000115498
0.000112303
0.000116952
0.000115501
0.000115498
0.000112288
0.000116952
0.000115501
0.000115497
0.000112268
0.000116952
0.000115501
0.000115498
0.000112247
0.000116952
0.000115501
0.000115497
0.000112227
0.000116952
0.0001155
0.000115496
0.000112215
0.000116952
0.0001155
0.000115497
0.000112213
0.000116952
0.0001155
0.000115497
0.000112213
0.000116952
0.0001155
0.000115496
0.000112215
0.000116952
0.0001155
0.000115496
0.000112218
0.000116952
0.0001155
0.000115497
0.000112223
0.000116952
0.0001155
0.000115497
0.000112226
0.000116952
0.0001155
0.000115496
0.000112229
0.000116952
0.0001155
0.000115496
0.000112233
0.000116951
0.0001155
0.000115496
0.000112233
0.000116951
0.000115499
0.000115496
0.00011223
0.000116951
0.0001155
0.000115495
0.00011223
0.000116951
0.0001155
0.000115496
0.000112235
0.000116951
0.000115499
0.000115496
0.000112237
0.000116951
0.000115499
0.000115496
0.000112232
0.000116951
0.000115499
0.000115496
0.000112224
0.000116951
0.0001155
0.000115495
0.000112223
0.000116951
0.0001155
0.000115495
0.000112227
0.000116952
0.0001155
0.000115496
0.000112231
0.000116952
0.0001155
0.000115497
0.000112229
0.000116952
0.000115501
0.000115497
0.000112228
0.000116952
0.000115501
0.000115497
0.000112231
0.000116952
0.000115502
0.000115497
0.000112235
0.000116952
0.000115502
0.000115498
0.000112233
0.000116952
0.000115504
0.000115499
0.000112227
0.000116953
0.000115506
0.000115501
0.000112225
0.000116953
0.000115509
0.000115504
0.000112228
0.000116954
0.000115514
0.00011551
0.000112231
0.000116955
0.000115524
0.000115519
0.000112231
0.000116958
0.00011554
0.000115535
0.000112234
0.000116927
0.000115522
0.000115517
0.000112232
0.000117672
0.000114836
0.000114832
0.000112343
2.11613e-06
2.83145e-06
2.96323e-06
2.41887e-06
2.35545e-06
2.94629e-06
3.36878e-05
3.37239e-05
3.39279e-05
3.37582e-05
2.91101e-06
2.39678e-06
2.33556e-06
2.88612e-06
2.87142e-06
2.14353e-06
2.10515e-06
2.13469e-06
3.60101e-06
3.56718e-06
3.7779e-06
3.73393e-06
2.40579e-06
2.42208e-06
3.01433e-06
3.66316e-06
3.21533e-06
3.86099e-06
3.07142e-06
3.69506e-06
3.24377e-06
2.32027e-06
2.34099e-06
3.6294e-06
3.77066e-06
3.80759e-06
2.10522e-06
2.13422e-06
2.18158e-06
3.86327e-06
3.81584e-06
4.14472e-06
4.08913e-06
2.41767e-06
2.43999e-06
3.3124e-06
3.94896e-06
3.63725e-06
4.22052e-06
3.32912e-06
4.07371e-06
3.61135e-06
2.33937e-06
2.39692e-06
3.89751e-06
4.17727e-06
4.20788e-06
2.13157e-06
2.17909e-06
2.21584e-06
4.25033e-06
4.17761e-06
4.56084e-06
4.38808e-06
2.43093e-06
2.45968e-06
3.74938e-06
4.32332e-06
4.10559e-06
4.67103e-06
3.70906e-06
4.51858e-06
4.01501e-06
2.3979e-06
2.45351e-06
4.32166e-06
4.6393e-06
4.6922e-06
2.16955e-06
2.21116e-06
2.24881e-06
4.68115e-06
4.46338e-06
5.03839e-06
4.73732e-06
2.45303e-06
2.49345e-06
4.22424e-06
4.80171e-06
4.57897e-06
5.21322e-06
4.1243e-06
5.00838e-06
4.4655e-06
2.45131e-06
2.53139e-06
4.81551e-06
5.16233e-06
5.20128e-06
2.19873e-06
2.24704e-06
2.33121e-06
5.15811e-06
4.84897e-06
5.55438e-06
5.20782e-06
2.48855e-06
2.53464e-06
4.70651e-06
5.36464e-06
5.11786e-06
5.83467e-06
4.59112e-06
5.53768e-06
4.99057e-06
2.53625e-06
2.70029e-06
5.33917e-06
5.78108e-06
5.74978e-06
2.25503e-06
2.33448e-06
2.48652e-06
5.66991e-06
5.33619e-06
6.11931e-06
5.76495e-06
2.53151e-06
2.65402e-06
5.2566e-06
6.00992e-06
5.72864e-06
6.55015e-06
5.12741e-06
6.03213e-06
5.59283e-06
2.70775e-06
2.98302e-06
5.89973e-06
6.4456e-06
6.38173e-06
2.37422e-06
2.48582e-06
2.70256e-06
6.26045e-06
5.89369e-06
6.71417e-06
6.39139e-06
2.65208e-06
2.85728e-06
5.88694e-06
6.72171e-06
6.35913e-06
7.31055e-06
5.74467e-06
6.54368e-06
6.26876e-06
2.99099e-06
3.34678e-06
6.54163e-06
7.14895e-06
7.0921e-06
2.58903e-06
2.69926e-06
2.97753e-06
6.88453e-06
6.5469e-06
7.38118e-06
7.07494e-06
2.85059e-06
3.06153e-06
6.51853e-06
7.47766e-06
7.09185e-06
8.0251e-06
6.44216e-06
7.06084e-06
7.0159e-06
3.35341e-06
3.7538e-06
7.272e-06
7.95759e-06
7.82724e-06
2.90702e-06
2.97127e-06
3.29476e-06
7.56777e-06
7.27129e-06
8.13967e-06
7.81762e-06
3.0493e-06
3.21623e-06
7.27458e-06
8.19664e-06
7.76973e-06
8.69826e-06
7.22909e-06
7.60225e-06
7.83585e-06
3.75586e-06
4.09187e-06
8.02024e-06
8.64863e-06
8.58677e-06
3.28938e-06
3.28864e-06
3.63354e-06
8.32361e-06
8.01681e-06
8.8835e-06
8.63139e-06
3.19805e-06
3.40488e-06
7.95553e-06
8.88625e-06
8.44873e-06
9.36119e-06
8.0733e-06
8.22227e-06
8.74624e-06
4.08183e-06
4.35175e-06
8.78075e-06
9.50807e-06
9.31699e-06
3.67377e-06
3.62146e-06
3.93087e-06
9.08917e-06
8.87217e-06
9.68003e-06
9.54747e-06
3.38841e-06
3.67712e-06
8.61497e-06
9.53688e-06
9.19895e-06
1.01434e-05
8.96787e-06
8.96831e-06
9.7045e-06
4.33152e-06
4.5796e-06
9.47531e-06
1.00137e-05
9.969e-06
4.0606e-06
3.903e-06
4.22603e-06
9.8641e-06
9.7538e-06
1.05017e-05
1.04892e-05
3.66088e-06
4.05978e-06
9.38274e-06
1.03312e-05
9.96371e-06
1.09891e-05
9.9315e-06
9.87207e-06
1.0631e-05
4.54788e-06
4.8472e-06
1.01435e-05
1.05861e-05
1.06927e-05
4.39689e-06
4.17801e-06
4.51248e-06
1.07099e-05
1.07413e-05
1.1343e-05
1.14578e-05
4.01659e-06
4.5418e-06
1.01833e-05
1.12198e-05
1.07472e-05
1.18826e-05
1.08617e-05
1.10647e-05
1.15237e-05
4.80372e-06
4.91613e-06
1.08888e-05
1.15405e-05
1.15209e-05
4.70771e-06
4.44899e-06
4.91895e-06
1.16075e-05
1.16915e-05
1.23838e-05
1.23583e-05
4.49451e-06
5.13374e-06
1.09368e-05
1.213e-05
1.17582e-05
1.28833e-05
1.17672e-05
1.22871e-05
1.25035e-05
4.83269e-06
5.13439e-06
1.17382e-05
1.25077e-05
1.24439e-05
5.07416e-06
4.84562e-06
5.37068e-06
1.25966e-05
1.2551e-05
1.341e-05
1.32558e-05
5.07939e-06
5.84703e-06
1.19962e-05
1.31212e-05
1.27222e-05
1.39823e-05
1.27101e-05
1.43151e-05
1.34392e-05
5.04001e-06
5.51909e-06
1.26617e-05
1.35375e-05
1.34022e-05
5.49802e-06
5.27213e-06
5.93596e-06
1.36899e-05
1.3481e-05
1.44451e-05
1.41151e-05
5.76001e-06
6.21334e-06
1.3022e-05
1.41876e-05
1.40244e-05
1.4801e-05
1.37042e-05
1.56568e-05
1.4377e-05
5.39995e-06
5.92079e-06
1.36543e-05
1.44478e-05
1.43511e-05
5.89023e-06
5.82975e-06
6.56069e-06
1.47771e-05
1.43958e-05
1.55548e-05
1.50481e-05
6.07113e-06
6.37119e-06
1.45023e-05
1.51086e-05
1.56916e-05
1.56207e-05
1.46498e-05
1.64656e-05
1.52618e-05
5.76962e-06
6.27087e-06
1.46255e-05
1.5389e-05
1.52391e-05
6.20498e-06
6.54861e-06
7.05601e-06
1.57744e-05
1.52942e-05
1.6581e-05
1.62169e-05
6.31173e-06
6.80897e-06
1.59817e-05
1.58462e-05
1.68513e-05
1.673e-05
1.54594e-05
1.70507e-05
1.62526e-05
6.25324e-06
6.85128e-06
1.54501e-05
1.63975e-05
1.62565e-05
6.71167e-06
7.04784e-06
7.67786e-06
1.68137e-05
1.64604e-05
1.74804e-05
1.74081e-05
6.81745e-06
7.59851e-06
1.71021e-05
1.68915e-05
1.78314e-05
1.73344e-05
1.64439e-05
1.76571e-05
1.7034e-05
6.83429e-06
7.52755e-06
1.64811e-05
1.72336e-05
1.70865e-05
7.40196e-06
7.71499e-06
8.85623e-06
1.77517e-05
1.78054e-05
1.85968e-05
1.86212e-05
7.65838e-06
8.70917e-06
1.80479e-05
1.75474e-05
1.85889e-05
1.82482e-05
1.73334e-05
1.84417e-05
1.80777e-05
7.56861e-06
8.55839e-06
1.73633e-05
1.82971e-05
1.81444e-05
8.43746e-06
9.01097e-06
1.0505e-05
1.88583e-05
1.88273e-05
1.97689e-05
1.98835e-05
8.8293e-06
1.03019e-05
1.87613e-05
1.84673e-05
1.94467e-05
1.93196e-05
1.82945e-05
1.95756e-05
1.93181e-05
8.66987e-06
1.01154e-05
1.83616e-05
1.94215e-05
1.93764e-05
1.00234e-05
1.07586e-05
1.2881e-05
2.01299e-05
2.03285e-05
2.12395e-05
2.14639e-05
1.05413e-05
1.25215e-05
1.97567e-05
1.96971e-05
2.07935e-05
2.0837e-05
1.96788e-05
2.07298e-05
2.07172e-05
1.03836e-05
1.25652e-05
1.9762e-05
2.08774e-05
2.08087e-05
1.25207e-05
1.33316e-05
1.63136e-05
2.16141e-05
2.17854e-05
2.29908e-05
2.29154e-05
1.29614e-05
1.59776e-05
2.11712e-05
2.12321e-05
2.2616e-05
2.26918e-05
2.11781e-05
2.27313e-05
2.27321e-05
1.30211e-05
1.60278e-05
2.12468e-05
2.28135e-05
2.28407e-05
1.60497e-05
1.69901e-05
2.11736e-05
2.35575e-05
2.33875e-05
2.54489e-05
2.51046e-05
1.66341e-05
2.07391e-05
2.31994e-05
2.32496e-05
2.51528e-05
2.51626e-05
2.32624e-05
2.52589e-05
2.53338e-05
1.66961e-05
2.08833e-05
2.33952e-05
2.52946e-05
2.53212e-05
2.09981e-05
2.21384e-05
2.76849e-05
2.61398e-05
2.57904e-05
2.87321e-05
2.82997e-05
2.17202e-05
2.73629e-05
2.58921e-05
2.59097e-05
2.85333e-05
2.84859e-05
2.62141e-05
2.8608e-05
2.90301e-05
2.1875e-05
2.75153e-05
2.61239e-05
2.87261e-05
2.89807e-05
2.75148e-05
2.89536e-05
3.55784e-05
2.98431e-05
2.93053e-05
3.35949e-05
3.26943e-05
2.86161e-05
3.51432e-05
2.95612e-05
2.94694e-05
3.28755e-05
3.27964e-05
3.0004e-05
3.29348e-05
3.31319e-05
2.87659e-05
3.53922e-05
3.00529e-05
3.32611e-05
3.34177e-05
3.50517e-05
3.69865e-05
4.38155e-05
3.48069e-05
3.38628e-05
3.82396e-05
3.74904e-05
3.65751e-05
4.36776e-05
3.39825e-05
3.39631e-05
3.74537e-05
3.75922e-05
3.42093e-05
3.75554e-05
3.76499e-05
3.68513e-05
4.38885e-05
3.45142e-05
3.78621e-05
3.79002e-05
4.37371e-05
4.53234e-05
5.33697e-05
3.94582e-05
3.882e-05
4.36767e-05
4.32777e-05
4.5232e-05
5.33421e-05
3.87573e-05
3.89131e-05
4.32044e-05
4.3344e-05
3.89484e-05
4.33362e-05
4.33586e-05
4.53985e-05
5.33587e-05
3.91743e-05
4.34318e-05
4.35245e-05
5.34221e-05
5.52062e-05
6.38733e-05
4.52768e-05
4.49248e-05
5.11392e-05
5.09022e-05
5.51751e-05
6.38261e-05
4.486e-05
4.49857e-05
5.08727e-05
5.09592e-05
4.49919e-05
5.09507e-05
5.09326e-05
5.51845e-05
6.38588e-05
4.51373e-05
5.10329e-05
5.10145e-05
6.38608e-05
6.5774e-05
7.52626e-05
5.36135e-05
5.34146e-05
6.26168e-05
6.25173e-05
6.57262e-05
7.52341e-05
5.33955e-05
5.34723e-05
6.2515e-05
6.257e-05
5.3437e-05
6.25354e-05
6.25265e-05
6.57646e-05
7.52829e-05
5.35005e-05
6.26122e-05
6.25515e-05
7.52454e-05
7.73485e-05
8.70077e-05
6.59971e-05
6.59217e-05
7.66814e-05
7.66509e-05
7.7326e-05
8.70014e-05
6.59216e-05
6.59695e-05
7.66517e-05
7.66791e-05
6.59288e-05
7.66587e-05
7.6656e-05
7.73706e-05
8.70227e-05
6.59459e-05
7.66936e-05
7.66595e-05
8.70044e-05
8.89446e-05
9.75592e-05
8.03179e-05
8.0295e-05
9.10065e-05
9.09933e-05
8.89399e-05
9.75572e-05
8.02961e-05
8.03172e-05
9.09976e-05
9.10035e-05
8.03011e-05
9.10031e-05
9.1006e-05
8.89571e-05
9.75638e-05
8.03022e-05
9.10163e-05
9.10035e-05
9.75608e-05
9.91875e-05
0.000105939
9.4414e-05
9.44022e-05
0.000103533
0.000103522
9.91859e-05
0.000105938
9.44085e-05
9.44098e-05
0.000103533
0.000103525
9.4416e-05
0.000103539
0.000103537
9.91904e-05
0.000105937
9.44141e-05
0.000103542
0.000103538
0.000105939
0.000107043
0.000110108
0.000105971
0.00010596
0.000111101
0.000111088
0.000107042
0.000110107
0.000105972
0.000105962
0.000111104
0.000111089
0.000105976
0.00011111
0.000111109
0.00010704
0.000110107
0.000105978
0.000111112
0.000111111
0.000110113
0.000110511
0.000111625
0.000112191
0.000112179
0.000114198
0.000114184
0.000110511
0.000111625
0.000112195
0.000112179
0.000114203
0.000114184
0.000112199
0.000114209
0.000114206
0.00011051
0.000111623
0.000112202
0.000114211
0.00011421
0.000111628
0.000111753
0.000112091
0.000114565
0.000114552
0.00011517
0.000115157
0.000111752
0.000112091
0.000114571
0.000114552
0.000115176
0.000115156
0.000114574
0.000115183
0.000115178
0.00011175
0.000112088
0.000114578
0.000115184
0.000115183
0.000112093
0.000112117
0.000112255
0.000115271
0.000115257
0.000115431
0.000115417
0.000112116
0.000112254
0.000115277
0.000115257
0.000115437
0.000115416
0.000115279
0.000115444
0.000115438
0.000112113
0.00011225
0.000115284
0.000115443
0.000115443
0.000112256
0.000112249
0.00011227
0.000115455
0.000115441
0.000115479
0.000115464
0.000112248
0.00011227
0.000115461
0.00011544
0.000115485
0.000115464
0.000115461
0.000115491
0.000115485
0.000112244
0.000112266
0.000115467
0.000115491
0.00011549
0.000112271
0.000112251
0.000112235
0.000115479
0.000115465
0.000115478
0.000115464
0.000112251
0.000112234
0.000115485
0.000115465
0.000115485
0.000115464
0.000115485
0.000115491
0.000115485
0.000112248
0.000112231
0.000115491
0.000115491
0.00011549
0.000112235
0.00011222
0.000112274
0.000115479
0.000115465
0.000115487
0.000115473
0.000112219
0.000112275
0.000115485
0.000115465
0.000115494
0.000115473
0.000115485
0.000115499
0.000115493
0.000112216
0.000112271
0.00011549
0.000115499
0.000115498
0.000112277
0.000112267
0.00011223
0.000115487
0.000115473
0.000115482
0.000115469
0.000112268
0.000112227
0.000115494
0.000115473
0.000115489
0.000115468
0.000115492
0.000115495
0.000115489
0.000112264
0.000112224
0.000115498
0.000115495
0.000115494
0.000112228
0.000112206
0.000112293
0.000115482
0.000115469
0.000115484
0.000115471
0.000112204
0.000112293
0.000115489
0.000115468
0.000115491
0.000115469
0.000115489
0.000115497
0.00011549
0.000112202
0.000112287
0.000115494
0.000115496
0.000115495
0.000112289
0.000112279
0.000112236
0.000115484
0.000115471
0.000115484
0.000115471
0.000112277
0.00011224
0.000115491
0.00011547
0.000115491
0.00011547
0.00011549
0.000115498
0.00011549
0.000112269
0.000112247
0.000115495
0.000115497
0.000115496
0.000112249
0.000112239
0.000112238
0.000115483
0.000115471
0.000115484
0.000115471
0.000112246
0.00011223
0.000115491
0.000115469
0.000115491
0.00011547
0.00011549
0.000115498
0.00011549
0.000112251
0.000112231
0.000115495
0.000115497
0.000115495
0.000112238
0.000112225
0.000112255
0.000115484
0.000115473
0.000115484
0.000115471
0.000112225
0.000112234
0.000115492
0.000115471
0.000115491
0.000115469
0.000115492
0.000115497
0.000115489
0.000112234
0.000112219
0.000115497
0.000115496
0.000115495
0.000112246
0.000112232
0.000112281
0.000115484
0.000115472
0.000115485
0.000115472
0.000112213
0.000112262
0.000115491
0.000115471
0.000115491
0.000115469
0.000115489
0.000115499
0.000115491
0.000112214
0.000112227
0.000115495
0.000115497
0.000115496
0.000112271
0.000112266
0.000112269
0.000115485
0.000115472
0.000115487
0.000115473
0.000112232
0.000112278
0.000115491
0.000115471
0.000115491
0.00011547
0.00011549
0.000115499
0.00011549
0.000112212
0.000112226
0.000115496
0.000115496
0.000115495
0.000112279
0.000112275
0.000112247
0.000115485
0.000115472
0.000115487
0.000115475
0.000112251
0.000112286
0.00011549
0.000115469
0.000115493
0.000115472
0.00011549
0.0001155
0.000115492
0.000112205
0.000112236
0.000115495
0.000115497
0.000115497
0.00011228
0.000112262
0.000112229
0.000115487
0.000115473
0.000115486
0.000115475
0.000112265
0.000112286
0.000115492
0.000115471
0.000115492
0.000115471
0.00011549
0.000115502
0.000115492
0.000112207
0.000112243
0.000115495
0.000115499
0.000115498
0.00011229
0.000112248
0.000112216
0.000115487
0.000115475
0.000115485
0.000115473
0.000112274
0.000112275
0.000115493
0.000115472
0.00011549
0.00011547
0.000115492
0.0001155
0.000115491
0.000112216
0.000112233
0.000115496
0.000115497
0.000115497
0.000112299
0.000112229
0.000112217
0.000115487
0.000115474
0.000115485
0.000115473
0.000112265
0.000112284
0.000115491
0.000115471
0.000115491
0.00011547
0.000115491
0.000115499
0.000115491
0.000112208
0.000112241
0.000115497
0.000115496
0.000115495
0.000112261
0.000112209
0.000112233
0.000115486
0.000115473
0.000115486
0.000115475
0.000112262
0.000112289
0.00011549
0.00011547
0.000115492
0.000115471
0.00011549
0.000115502
0.000115492
0.000112209
0.000112244
0.000115496
0.000115497
0.000115496
0.000112257
0.000112225
0.000112222
0.000115486
0.000115473
0.000115488
0.000115475
0.000112276
0.000112262
0.000115491
0.000115471
0.000115492
0.000115471
0.000115491
0.000115501
0.000115492
0.000112215
0.000112231
0.000115495
0.000115497
0.000115498
0.000112305
0.000112229
0.000112212
0.000115487
0.000115474
0.000115487
0.000115475
0.000112247
0.000112287
0.000115492
0.000115471
0.000115491
0.000115472
0.000115492
0.0001155
0.000115491
0.000112197
0.000112273
0.000115496
0.000115498
0.000115496
0.000112264
0.000112196
0.000112275
0.000115487
0.000115474
0.000115487
0.000115475
0.000112245
0.000112313
0.000115492
0.000115471
0.000115492
0.000115472
0.000115492
0.000115499
0.00011549
0.00011223
0.000112302
0.000115498
0.000115499
0.000115495
0.00011222
0.000112246
0.000112291
0.000115487
0.000115475
0.000115487
0.000115475
0.000112288
0.000112284
0.000115492
0.000115471
0.000115491
0.00011547
0.00011549
0.000115503
0.000115492
0.000112289
0.000112258
0.000115496
0.000115497
0.000115495
0.000112281
0.000112295
0.000112249
0.000115487
0.000115475
0.000115488
0.000115475
0.000112294
0.000112221
0.000115491
0.000115472
0.000115491
0.00011547
0.00011549
0.000115502
0.000115493
0.000112274
0.000112208
0.000115495
0.000115497
0.000115496
0.000112318
0.000112274
0.000112203
0.000115488
0.000115475
0.000115487
0.000115474
0.000112249
0.000112202
0.000115491
0.00011547
0.000115492
0.000115471
0.000115492
0.0001155
0.000115492
0.000112229
0.000112207
0.000115495
0.000115498
0.000115498
0.000112298
0.000112223
0.000112207
0.000115488
0.000115475
0.000115486
0.000115474
0.000112194
0.000112238
0.000115492
0.000115471
0.00011549
0.000115471
0.000115492
0.000115501
0.000115491
0.000112191
0.000112242
0.000115496
0.000115497
0.000115497
0.000112263
0.000112186
0.000112247
0.000115486
0.000115473
0.000115489
0.000115477
0.000112202
0.000112287
0.000115492
0.000115471
0.00011549
0.000115471
0.000115492
0.000115501
0.000115491
0.000112207
0.000112259
0.000115497
0.000115497
0.000115496
0.000112233
0.000112206
0.000112294
0.000115488
0.000115475
0.000115488
0.000115475
0.00011225
0.000112273
0.00011549
0.000115471
0.000115491
0.00011547
0.000115492
0.000115501
0.000115491
0.000112235
0.000112222
0.000115496
0.000115497
0.000115496
0.000112216
0.000112252
0.000112295
0.000115488
0.000115476
0.000115488
0.000115474
0.000112254
0.000112236
0.00011549
0.000115471
0.000115492
0.00011547
0.000115491
0.0001155
0.000115492
0.000112218
0.000112203
0.000115496
0.000115497
0.000115496
0.000112209
0.000112279
0.000112264
0.000115488
0.000115474
0.000115488
0.000115475
0.000112216
0.000112228
0.000115491
0.00011547
0.000115491
0.00011547
0.000115492
0.0001155
0.000115492
0.000112196
0.000112214
0.000115496
0.000115496
0.000115495
0.00011221
0.000112248
0.000112266
0.000115487
0.000115475
0.000115489
0.000115476
0.000112199
0.000112231
0.00011549
0.00011547
0.00011549
0.00011547
0.000115492
0.0001155
0.000115491
0.000112186
0.000112235
0.000115497
0.000115497
0.000115495
0.000112213
0.000112222
0.000112278
0.000115488
0.000115475
0.000115488
0.000115475
0.000112198
0.000112238
0.00011549
0.00011547
0.000115491
0.00011547
0.000115492
0.0001155
0.000115491
0.000112197
0.000112256
0.000115496
0.000115497
0.000115495
0.000112215
0.000112232
0.000112291
0.000115488
0.000115475
0.000115489
0.000115475
0.0001122
0.00011225
0.00011549
0.00011547
0.000115492
0.000115471
0.000115491
0.0001155
0.000115491
0.000112213
0.000112267
0.000115495
0.000115496
0.000115495
0.000112216
0.000112251
0.000112288
0.000115489
0.000115475
0.000115488
0.000115475
0.000112208
0.000112263
0.00011549
0.00011547
0.000115492
0.000115472
0.000115491
0.0001155
0.000115491
0.000112224
0.000112269
0.000115495
0.000115497
0.000115496
0.000112217
0.000112252
0.000112289
0.000115488
0.000115474
0.000115488
0.000115475
0.000112216
0.000112278
0.000115491
0.000115471
0.000115491
0.000115471
0.000115491
0.0001155
0.000115491
0.000112226
0.000112269
0.000115495
0.000115498
0.000115496
0.000112216
0.000112247
0.000112297
0.000115488
0.000115474
0.000115488
0.000115475
0.00011223
0.000112295
0.00011549
0.00011547
0.000115491
0.000115471
0.000115491
0.000115501
0.000115491
0.000112225
0.000112276
0.000115496
0.000115497
0.000115496
0.000112215
0.000112259
0.000112297
0.000115487
0.000115474
0.000115489
0.000115475
0.000112252
0.000112297
0.00011549
0.00011547
0.000115492
0.000115472
0.000115491
0.000115501
0.000115492
0.000112232
0.000112281
0.000115496
0.000115497
0.000115495
0.000112215
0.000112272
0.000112288
0.000115487
0.000115474
0.000115489
0.000115475
0.000112267
0.000112289
0.00011549
0.00011547
0.000115491
0.000115471
0.000115492
0.0001155
0.000115492
0.000112243
0.000112278
0.000115496
0.000115497
0.000115495
0.000112215
0.000112269
0.000112285
0.000115488
0.000115474
0.000115488
0.000115475
0.000112264
0.000112287
0.00011549
0.000115471
0.000115491
0.000115471
0.000115492
0.0001155
0.000115492
0.000112241
0.000112277
0.000115496
0.000115496
0.000115495
0.000112213
0.000112259
0.000112283
0.000115488
0.000115474
0.000115488
0.000115475
0.000112253
0.00011229
0.00011549
0.000115471
0.000115491
0.000115471
0.000115492
0.0001155
0.000115491
0.000112235
0.000112283
0.000115495
0.000115496
0.000115495
0.000112212
0.000112247
0.000112281
0.000115487
0.000115474
0.000115488
0.000115475
0.000112251
0.000112291
0.00011549
0.00011547
0.00011549
0.000115471
0.000115492
0.0001155
0.000115491
0.00011224
0.000112287
0.000115495
0.000115496
0.000115495
0.000112216
0.000112239
0.000112281
0.000115487
0.000115474
0.000115488
0.000115475
0.000112255
0.000112289
0.00011549
0.00011547
0.00011549
0.00011547
0.000115491
0.0001155
0.000115491
0.000112252
0.000112285
0.000115495
0.000115496
0.000115495
0.000112218
0.000112237
0.000112286
0.000115487
0.000115474
0.000115488
0.000115475
0.000112253
0.000112292
0.00011549
0.00011547
0.00011549
0.00011547
0.000115491
0.0001155
0.000115491
0.000112255
0.000112283
0.000115496
0.000115496
0.000115495
0.000112214
0.000112241
0.000112294
0.000115488
0.000115474
0.000115488
0.000115474
0.000112254
0.000112292
0.00011549
0.00011547
0.00011549
0.00011547
0.000115491
0.0001155
0.00011549
0.000112252
0.000112279
0.000115495
0.000115495
0.000115494
0.000112209
0.000112251
0.000112299
0.000115487
0.000115474
0.000115488
0.000115474
0.000112259
0.000112287
0.00011549
0.00011547
0.00011549
0.00011547
0.00011549
0.0001155
0.00011549
0.000112247
0.000112275
0.000115495
0.000115495
0.000115494
0.000112209
0.000112266
0.000112295
0.000115487
0.000115474
0.000115488
0.000115474
0.000112255
0.000112283
0.00011549
0.00011547
0.00011549
0.00011547
0.00011549
0.000115499
0.00011549
0.000112237
0.000112275
0.000115494
0.000115495
0.000115494
0.000112212
0.000112274
0.000112285
0.000115488
0.000115474
0.000115487
0.000115474
0.000112244
0.000112285
0.00011549
0.00011547
0.00011549
0.00011547
0.00011549
0.000115499
0.00011549
0.000112231
0.000112281
0.000115494
0.000115496
0.000115494
0.000112215
0.000112267
0.000112283
0.000115488
0.000115474
0.000115487
0.000115474
0.00011224
0.000112292
0.00011549
0.00011547
0.00011549
0.00011547
0.000115491
0.000115499
0.00011549
0.00011224
0.000112281
0.000115494
0.000115496
0.000115494
0.000112213
0.000112253
0.000112282
0.000115488
0.000115474
0.000115487
0.000115474
0.00011225
0.000112295
0.00011549
0.00011547
0.00011549
0.00011547
0.000115491
0.000115499
0.00011549
0.000112248
0.000112273
0.000115495
0.000115496
0.000115494
0.000112211
0.000112241
0.000112282
0.000115488
0.000115474
0.000115487
0.000115474
0.000112261
0.000112291
0.00011549
0.00011547
0.00011549
0.00011547
0.000115491
0.000115499
0.00011549
0.000112237
0.000112271
0.000115495
0.000115495
0.000115494
0.000112214
0.000112238
0.000112288
0.000115488
0.000115475
0.000115487
0.000115474
0.000112261
0.000112289
0.00011549
0.00011547
0.000115489
0.00011547
0.000115491
0.000115499
0.00011549
0.000112227
0.00011228
0.000115495
0.000115495
0.000115494
0.000112216
0.000112244
0.000112295
0.000115488
0.000115475
0.000115488
0.000115474
0.000112255
0.00011229
0.000115491
0.000115471
0.00011549
0.00011547
0.000115492
0.0001155
0.00011549
0.000112237
0.000112287
0.000115496
0.000115495
0.000115494
0.000112214
0.000112256
0.000112296
0.000115489
0.000115475
0.000115488
0.000115474
0.000112253
0.00011229
0.000115491
0.000115471
0.00011549
0.00011547
0.000115492
0.0001155
0.00011549
0.000112253
0.00011228
0.000115496
0.000115495
0.000115494
0.000112209
0.000112267
0.00011229
0.00011549
0.000115476
0.000115488
0.000115475
0.000112253
0.000112291
0.000115492
0.000115472
0.00011549
0.00011547
0.000115493
0.0001155
0.00011549
0.000112253
0.000112276
0.000115497
0.000115496
0.000115494
0.000112208
0.000112266
0.000112286
0.000115492
0.000115478
0.000115488
0.000115475
0.000112256
0.00011229
0.000115494
0.000115473
0.000115491
0.000115471
0.000115494
0.000115501
0.000115491
0.000112242
0.000112275
0.000115498
0.000115496
0.000115495
0.000112211
0.000112259
0.000112285
0.000115493
0.00011548
0.00011549
0.000115477
0.000112256
0.000112288
0.000115496
0.000115475
0.000115493
0.000115473
0.000115496
0.000115502
0.000115493
0.000112235
0.000112277
0.0001155
0.000115498
0.000115496
0.000112214
0.00011225
0.000112286
0.000115496
0.000115483
0.000115493
0.00011548
0.000112251
0.000112289
0.000115499
0.000115479
0.000115496
0.000115476
0.000115499
0.000115506
0.000115496
0.000112237
0.000112282
0.000115503
0.000115501
0.0001155
0.000112214
0.000112246
0.000112292
0.000115501
0.000115488
0.0001155
0.000115487
0.00011225
0.000112296
0.000115504
0.000115484
0.000115503
0.000115483
0.000115505
0.000115513
0.000115502
0.000112243
0.000112288
0.000115508
0.000115508
0.000115506
0.000112217
0.000112253
0.000112302
0.00011551
0.000115497
0.000115512
0.0001155
0.000112257
0.000112307
0.000115513
0.000115493
0.000115515
0.000115496
0.000115514
0.000115525
0.000115515
0.000112251
0.000112295
0.000115517
0.00011552
0.000115519
0.000112224
0.000112265
0.000112302
0.000115527
0.000115515
0.000115533
0.000115522
0.000112273
0.00011231
0.00011553
0.000115511
0.000115537
0.000115518
0.00011553
0.000115546
0.000115535
0.00011226
0.000112292
0.000115534
0.000115542
0.000115541
0.000112229
0.000112266
0.00011223
0.000115508
0.000115497
0.000115638
0.000115626
0.000112278
0.000112231
0.000115512
0.000115492
0.000115643
0.000115621
0.00011551
0.000115655
0.00011564
0.000112258
0.000112225
0.000115516
0.000115649
0.000115647
0.000112227
0.000112329
0.000114821
0.00011481
0.000112332
0.000114826
0.000114805
0.00011767
0.000117667
0.000117673
0.000114823
0.000112325
0.00011483
7.93194e-05
1.49043e-05
5.46391e-05
5.45789e-05
4.74402e-07
2.99277e-06
1.58183e-06
3.48082e-05
5.30946e-07
2.97103e-06
3.49302e-05
1.63316e-06
2.19613e-06
9.92709e-07
1.7676e-06
9.63748e-07
1.35218e-05
9.1694e-07
1.52982e-05
1.0821e-05
1.30568e-05
1.09362e-06
1.3567e-05
1.04558e-06
1.52838e-05
3.31099e-05
3.33216e-05
3.31457e-05
3.32386e-05
3.32736e-05
3.35266e-05
3.3331e-05
5.30524e-07
5.60366e-07
1.5727e-05
3.56158e-06
4.95751e-07
6.87754e-07
1.56762e-05
1.10231e-05
1.32301e-05
5.57862e-07
1.59931e-05
5.14867e-07
3.61617e-06
5.17887e-07
1.60858e-05
6.30071e-07
1.33722e-06
1.49077e-06
2.10735e-06
1.55444e-06
1.70006e-06
1.24286e-06
1.85119e-05
1.06404e-06
2.10805e-05
1.70853e-05
1.92621e-05
1.29253e-06
1.85186e-05
1.18027e-06
2.11576e-05
3.35692e-05
3.38252e-05
3.36335e-05
3.44548e-05
3.44735e-05
3.47444e-05
3.4557e-05
5.96102e-07
8.49095e-07
1.61577e-05
3.87189e-06
5.87546e-07
1.05977e-06