/*--------------------------------*- C++ -*----------------------------------*\
| =========                 |                                                 |
| \\      /  F ield         | OpenFOAM: The Open Source CFD Toolbox           |
|  \\    /   O peration     | Version:  v1906                                 |
|   \\  /    A nd           | Web:      www.OpenFOAM.com                      |
|    \\/     M anipulation  |                                                 |
\*---------------------------------------------------------------------------*/
FoamFile
{
    version     2.0;
    format      ascii;
    class       volScalarField;
    location    "137.5";
    object      p;
}
// * * * * * * * * * * * * * * * * * * * * * * * * * * * * * * * * * * * * * //

dimensions      [0 2 -2 0 0 0 0];


internalField   nonuniform List<scalar> 
171728
(
0.00352028
0.00351972
0.00351977
0.00352117
0.00348387
0.00348285
0.00348295
0.00348594
0.00344711
0.00344568
0.00344566
0.00344803
0.00340226
0.00340107
0.0034011
0.00340367
0.00335413
0.00335296
0.00335298
0.00335564
0.00330599
0.00330495
0.00330493
0.00330757
0.003258
0.00325705
0.00325705
0.00325975
0.00321085
0.00321001
0.00321
0.00321269
0.00316471
0.00316395
0.00316394
0.00316664
0.00311954
0.00311887
0.00311885
0.00312157
0.00307529
0.00307468
0.00307468
0.00307739
0.00303176
0.00303126
0.00303123
0.00303391
0.00298878
0.00298832
0.00298831
0.00299099
0.00294618
0.00294577
0.00294579
0.00294846
0.00290389
0.00290356
0.00290356
0.00290623
0.00286193
0.00286167
0.00286166
0.00286427
0.0028203
0.00282002
0.00282004
0.00282262
0.00277904
0.00277874
0.00277877
0.00278132
0.00273807
0.00273791
0.00273787
0.00274038
0.00269761
0.00269735
0.00269734
0.00269981
0.00265746
0.00265719
0.00265721
0.00265958
0.00261772
0.00261746
0.00261745
0.00261981
0.00257836
0.00257809
0.00257806
0.00258042
0.00253954
0.00253924
0.00253925
0.00254163
0.00250137
0.00250104
0.00250103
0.00250335
0.0024644
0.00246411
0.00246411
0.00246655
0.00242873
0.00242854
0.00242852
0.00243096
0.00239357
0.00239347
0.00239348
0.00239582
0.00235789
0.00235782
0.00235782
0.00236017
0.0023212
0.00232106
0.00232106
0.00232339
0.00228387
0.00228376
0.00228376
0.00228599
0.00224659
0.00224647
0.00224647
0.00224861
0.00220977
0.00220961
0.00220961
0.00221169
0.00217341
0.00217324
0.00217324
0.00217531
0.00213739
0.00213727
0.00213727
0.00213934
0.00210161
0.00210153
0.00210153
0.00210362
0.00206592
0.00206587
0.00206587
0.00206796
0.00203025
0.00203021
0.00203021
0.0020323
0.00199458
0.00199455
0.00199455
0.00199664
0.00195892
0.00195888
0.00195888
0.00196098
0.00192326
0.00192322
0.00192322
0.00192531
0.00188759
0.00188755
0.00188755
0.00188965
0.00185193
0.00185189
0.00185189
0.00185398
0.00181626
0.00181622
0.00181622
0.00181832
0.0017806
0.00178056
0.00178056
0.00178265
0.00174493
0.0017449
0.0017449
0.00174699
0.00170927
0.00170923
0.00170923
0.00171133
0.00167361
0.00167357
0.00167357
0.00167566
0.00163794
0.0016379
0.0016379
0.00164
0.00160228
0.00160224
0.00160224
0.00160433
0.00156661
0.00156657
0.00156657
0.00156867
0.00153095
0.00153091
0.00153091
0.001533
0.00149528
0.00149524
0.00149524
0.00149734
0.00145962
0.00145958
0.00145958
0.00146168
0.00142396
0.00142392
0.00142392
0.00142602
0.0013883
0.00138826
0.00138826
0.00139036
0.00135264
0.0013526
0.0013526
0.0013547
0.00131697
0.00131694
0.00131694
0.00131903
0.00128131
0.00128127
0.00128127
0.00128336
0.00124564
0.0012456
0.0012456
0.00124769
0.00120997
0.00120993
0.00120993
0.00121203
0.0011743
0.00117427
0.00117426
0.00117636
0.00113864
0.0011386
0.0011386
0.00114069
0.00110297
0.00110293
0.00110293
0.00110502
0.0010673
0.00106726
0.00106726
0.00106935
0.00103163
0.00103159
0.00103159
0.00103368
0.000995956
0.000995917
0.000995918
0.000998013
0.000960284
0.000960245
0.000960245
0.000962341
0.000924613
0.000924574
0.000924573
0.000926669
0.000888944
0.000888904
0.000888904
0.000890999
0.000853276
0.000853236
0.000853237
0.000855332
0.000817609
0.000817569
0.000817569
0.000819664
0.000781943
0.000781904
0.000781904
0.000783999
0.000746278
0.000746239
0.000746239
0.000748334
0.000710614
0.000710575
0.000710574
0.00071267
0.000674951
0.000674912
0.000674911
0.000677006
0.000639288
0.000639249
0.000639249
0.000641343
0.000603625
0.000603586
0.000603586
0.000605681
0.000567963
0.000567923
0.000567924
0.000570018
0.000532301
0.000532261
0.000532261
0.000534356
0.000496638
0.000496599
0.000496598
0.000498693
0.000460976
0.000460936
0.000460936
0.00046303
0.000425312
0.000425273
0.000425273
0.000427366
0.000389647
0.000389608
0.000389609
0.000391701
0.000353981
0.000353942
0.000353943
0.000356035
0.000318315
0.000318276
0.000318276
0.000320367
0.000282647
0.000282609
0.000282609
0.000284698
0.000246979
0.000246941
0.000246941
0.000249028
0.000211309
0.000211272
0.000211272
0.000213354
0.000175636
0.000175601
0.0001756
0.000177675
0.000139958
0.000139926
0.000139926
0.000141988
0.000104265
0.000104243
0.000104243
0.000106287
6.8588e-05
6.85517e-05
6.85503e-05
7.05668e-05
3.37939e-05
3.33849e-05
3.3381e-05
3.50828e-05
4.54728e-06
3.82821e-06
3.82951e-06
3.79627e-06
0.00352631
0.00352473
0.00352472
0.0035263
0.00352475
0.00352481
0.00352922
0.00352919
0.00352923
0.00352924
0.00352476
0.00352475
0.00352637
0.00352482
0.00352474
0.00352634
0.00352114
0.0034904
0.0035197
0.00351968
0.00349205
0.00349206
0.00352113
0.0034904
0.0035197
0.00351977
0.00349206
0.00349194
0.00351978
0.00349196
0.00349192
0.00352118
0.00349039
0.00351974
0.00349193
0.00349203
0.00349041
0.00348592
0.00345346
0.00348282
0.00348278
0.00345574
0.00345576
0.00348592
0.00345345
0.00348278
0.00348295
0.00345578
0.00345565
0.00348293
0.0034557
0.00345562
0.00348596
0.00345342
0.00348283
0.00345564
0.00345574
0.00345343
0.00344804
0.00340986
0.00344561
0.0034456
0.00341293
0.00341291
0.00344805
0.00340986
0.00344561
0.00344569
0.00341292
0.00341288
0.00344569
0.00341292
0.00341286
0.00344804
0.00340985
0.00344559
0.00341288
0.00341292
0.00340985
0.00340367
0.00336198
0.00340107
0.00340107
0.00336504
0.00336503
0.00340367
0.00336197
0.00340107
0.0034011
0.00336503
0.00336504
0.00340111
0.00336507
0.00336504
0.00340368
0.00336197
0.00340107
0.00336499
0.00336503
0.00336197
0.00335566
0.00331384
0.00335298
0.003353
0.00331692
0.00331691
0.00335565
0.00331384
0.00335298
0.00335297
0.0033169
0.00331693
0.00335293
0.00331692
0.00331692
0.00335566
0.00331385
0.00335294
0.00331693
0.00331692
0.00331385
0.00330758
0.00326595
0.00330494
0.00330494
0.00326898
0.00326897
0.00330757
0.00326595
0.00330496
0.00330494
0.00326896
0.00326899
0.00330492
0.00326898
0.00326897
0.00330758
0.00326594
0.00330493
0.00326897
0.00326896
0.00326596
0.00325975
0.00321877
0.00325705
0.00325704
0.00322165
0.00322165
0.00325974
0.00321876
0.00325708
0.00325705
0.00322164
0.00322166
0.00325704
0.00322166
0.00322165
0.00325975
0.00321876
0.00325706
0.00322166
0.00322166
0.00321875
0.00321269
0.00317258
0.00320999
0.00320999
0.00317538
0.00317538
0.00321269
0.00317257
0.00320999
0.00321
0.00317537
0.00317538
0.00321
0.00317539
0.00317538
0.00321269
0.00317258
0.00320999
0.00317538
0.00317538
0.00317257
0.00316665
0.00312735
0.00316394
0.00316394
0.00313003
0.00313003
0.00316664
0.00312735
0.00316394
0.00316395
0.00313004
0.00313003
0.00316394
0.00313003
0.00313002
0.00316665
0.00312735
0.00316393
0.00313003
0.00313003
0.00312736
0.00312156
0.00308307
0.00311886
0.00311886
0.00308565
0.00308565
0.00312156
0.00308307
0.00311886
0.00311886
0.00308565
0.00308565
0.00311885
0.00308566
0.00308565
0.00312156
0.00308305
0.00311885
0.00308567
0.00308566
0.00308307
0.00307738
0.00303951
0.00307468
0.00307468
0.00304203
0.00304204
0.00307739
0.00303951
0.00307469
0.00307469
0.00304205
0.00304204
0.00307468
0.00304203
0.00304203
0.00307737
0.0030395
0.00307468
0.00304203
0.00304203
0.00303949
0.00303392
0.00299653
0.00303123
0.00303124
0.00299901
0.00299902
0.00303393
0.00299652
0.00303123
0.00303123
0.00299901
0.00299901
0.00303123
0.00299903
0.002999
0.00303391
0.00299652
0.00303122
0.00299902
0.00299901
0.00299652
0.002991
0.00295394
0.00298832
0.00298833
0.00295639
0.00295641
0.002991
0.00295395
0.00298831
0.00298831
0.00295639
0.00295639
0.00298832
0.00295641
0.0029564
0.00299099
0.00295393
0.00298831
0.00295639
0.00295639
0.00295394
0.00294846
0.00291166
0.00294579
0.00294578
0.00291409
0.00291412
0.00294847
0.00291166
0.00294578
0.00294577
0.00291407
0.00291408
0.00294578
0.00291411
0.0029141
0.00294845
0.00291167
0.00294579
0.00291409
0.0029141
0.00291166
0.00290621
0.00286968
0.00290357
0.00290358
0.00287209
0.0028721
0.00290624
0.00286961
0.00290357
0.00290356
0.00287207
0.0028721
0.00290357
0.00287212
0.0028721
0.00290623
0.00286968
0.00290357
0.00287211
0.00287211
0.00286965
0.00286429
0.00282802
0.00286165
0.00286165
0.0028304
0.00283039
0.00286424
0.00282794
0.00286166
0.00286165
0.00283038
0.00283041
0.00286166
0.00283039
0.0028304
0.00286429
0.00282797
0.00286166
0.00283042
0.00283041
0.00282797
0.00282266
0.00278667
0.00282004
0.00282002
0.00278905
0.00278905
0.00282257
0.00278661
0.00282004
0.00282005
0.00278907
0.00278906
0.00282003
0.00278898
0.00278905
0.00282265
0.00278662
0.00282003
0.00278906
0.00278906
0.00278662
0.00278137
0.00274549
0.00277876
0.00277877
0.00274804
0.00274808
0.00278134
0.00274561
0.00277877
0.00277877
0.002748
0.00274805
0.00277877
0.00274811
0.00274807
0.00278131
0.00274563
0.00277877
0.00274806
0.00274807
0.00274562
0.00274026
0.002705
0.00273784
0.00273788
0.00270746
0.00270747
0.00274037
0.00270498
0.00273777
0.00273787
0.00270741
0.00270745
0.00273787
0.00270745
0.00270745
0.00274039
0.00270493
0.00273787
0.00270744
0.00270744
0.00270499
0.00269982
0.00266472
0.00269737
0.00269739
0.0026672
0.00266719
0.00269981
0.0026647
0.00269737
0.00269734
0.00266724
0.00266718
0.00269734
0.00266719
0.00266722
0.00269975
0.00266471
0.00269733
0.0026672
0.00266721
0.00266471
0.00265959
0.00262488
0.0026572
0.00265717
0.00262735
0.00262728
0.00265954
0.00262486
0.00265724
0.0026572
0.00262737
0.00262737
0.00265721
0.00262736
0.00262739
0.00265958
0.00262489
0.00265721
0.00262736
0.00262738
0.00262488
0.00261979
0.00258546
0.00261745
0.00261739
0.00258789
0.00258791
0.0026198
0.00258547
0.00261746
0.00261745
0.00258787
0.00258787
0.00261748
0.00258789
0.00258786
0.00261981
0.00258544
0.00261747
0.00258786
0.00258786
0.00258541
0.00258045
0.00254661
0.0025781
0.00257812
0.00254893
0.00254894
0.00258045
0.0025466
0.00257808
0.00257807
0.00254892
0.00254891
0.00257807
0.00254889
0.00254891
0.00258042
0.0025466
0.00257807
0.00254891
0.00254891
0.00254661
0.00254165
0.00250833
0.00253928
0.00253928
0.00251054
0.00251052
0.00254166
0.00250832
0.00253926
0.00253926
0.00251051
0.0025105
0.00253923
0.00251051
0.00251042
0.00254165
0.0025083
0.00253925
0.00251049
0.00251043
0.00250819
0.00250347
0.00247114
0.00250107
0.00250105
0.00247316
0.00247319
0.00250345
0.00247117
0.00250104
0.00250104
0.00247318
0.0024732
0.00250096
0.00247319
0.00247321
0.00250344
0.00247119
0.00250096
0.0024732
0.00247319
0.00247121
0.00246645
0.00243542
0.00246406
0.00246409
0.0024373
0.00243731
0.0024665
0.00243544
0.00246409
0.00246412
0.00243731
0.00243732
0.00246415
0.00243735
0.00243739
0.00246651
0.00243543
0.00246414
0.00243733
0.00243739
0.00243551
0.00243089
0.00240039
0.0024285
0.00242851
0.00240226
0.00240225
0.0024309
0.00240037
0.00242851
0.00242851
0.00240226
0.00240225
0.00242857
0.00240225
0.00240226
0.00243089
0.00240037
0.00242857
0.00240226
0.00240226
0.00240038
0.00239583
0.00236488
0.00239349
0.00239348
0.00236686
0.00236685
0.00239581
0.00236487
0.00239349
0.00239348
0.00236685
0.00236685
0.00239348
0.00236684
0.00236684
0.00239582
0.00236487
0.00239348
0.00236685
0.00236684
0.00236487
0.00236018
0.00232823
0.00235783
0.00235783
0.00233033
0.00233034
0.00236018
0.00232823
0.00235783
0.00235782
0.00233034
0.00233033
0.00235782
0.00233033
0.00233033
0.00236017
0.00232823
0.00235782
0.00233033
0.00233033
0.00232823
0.00232339
0.00229089
0.00232106
0.00232107
0.0022931
0.0022931
0.00232339
0.00229089
0.00232107
0.00232106
0.0022931
0.0022931
0.00232107
0.0022931
0.0022931
0.00232338
0.00229089
0.00232106
0.0022931
0.0022931
0.00229089
0.00228598
0.0022535
0.00228376
0.00228376
0.00225577
0.00225577
0.00228598
0.0022535
0.00228376
0.00228376
0.00225577
0.00225577
0.00228376
0.00225577
0.00225577
0.00228599
0.0022535
0.00228376
0.00225577
0.00225577
0.0022535
0.00224861
0.00221652
0.00224647
0.00224647
0.00221877
0.00221877
0.00224861
0.00221652
0.00224647
0.00224647
0.00221877
0.00221877
0.00224647
0.00221877
0.00221877
0.00224861
0.00221652
0.00224647
0.00221877
0.00221877
0.00221652
0.00221169
0.0021801
0.00220961
0.00220961
0.0021823
0.0021823
0.00221169
0.0021801
0.00220961
0.00220961
0.0021823
0.0021823
0.00220961
0.0021823
0.0021823
0.00221169
0.0021801
0.00220961
0.0021823
0.0021823
0.0021801
0.00217531
0.00214409
0.00217324
0.00217324
0.00214623
0.00214623
0.00217531
0.00214409
0.00217324
0.00217324
0.00214623
0.00214623
0.00217324
0.00214623
0.00214623
0.00217531
0.00214409
0.00217324
0.00214623
0.00214623
0.00214409
0.00213934
0.00210835
0.00213727
0.00213727
0.00211046
0.00211046
0.00213934
0.00210835
0.00213727
0.00213727
0.00211046
0.00211046
0.00213727
0.00211046
0.00211046
0.00213934
0.00210835
0.00213727
0.00211046
0.00211046
0.00210835
0.00210362
0.00207269
0.00210153
0.00210153
0.00207478
0.00207478
0.00210362
0.00207269
0.00210153
0.00210153
0.00207478
0.00207478
0.00210153
0.00207478
0.00207478
0.00210362
0.00207269
0.00210153
0.00207478
0.00207478
0.00207269
0.00206796
0.00203703
0.00206587
0.00206587
0.00203912
0.00203912
0.00206796
0.00203703
0.00206587
0.00206587
0.00203912
0.00203912
0.00206587
0.00203912
0.00203912
0.00206796
0.00203703
0.00206587
0.00203912
0.00203912
0.00203703
0.0020323
0.00200137
0.00203021
0.00203021
0.00200346
0.00200346
0.0020323
0.00200137
0.00203021
0.00203021
0.00200346
0.00200346
0.00203021
0.00200346
0.00200346
0.0020323
0.00200137
0.00203021
0.00200346
0.00200346
0.00200137
0.00199664
0.00196571
0.00199455
0.00199455
0.0019678
0.0019678
0.00199664
0.00196571
0.00199455
0.00199455
0.0019678
0.0019678
0.00199455
0.0019678
0.0019678
0.00199664
0.00196571
0.00199455
0.0019678
0.0019678
0.00196571
0.00196098
0.00193004
0.00195888
0.00195888
0.00193214
0.00193214
0.00196098
0.00193004
0.00195888
0.00195888
0.00193214
0.00193214
0.00195888
0.00193214
0.00193214
0.00196098
0.00193004
0.00195888
0.00193214
0.00193214
0.00193004
0.00192531
0.00189438
0.00192322
0.00192322
0.00189647
0.00189647
0.00192531
0.00189438
0.00192322
0.00192322
0.00189647
0.00189647
0.00192322
0.00189647
0.00189647
0.00192531
0.00189438
0.00192322
0.00189647
0.00189647
0.00189438
0.00188965
0.00185871
0.00188755
0.00188755
0.0018608
0.0018608
0.00188965
0.00185871
0.00188755
0.00188755
0.0018608
0.0018608
0.00188755
0.0018608
0.0018608
0.00188965
0.00185871
0.00188755
0.0018608
0.0018608
0.00185871
0.00185398
0.00182305
0.00185189
0.00185189
0.00182514
0.00182514
0.00185398
0.00182305
0.00185189
0.00185189
0.00182514
0.00182514
0.00185189
0.00182514
0.00182514
0.00185398
0.00182305
0.00185189
0.00182514
0.00182514
0.00182305
0.00181832
0.00178738
0.00181622
0.00181622
0.00178947
0.00178947
0.00181832
0.00178738
0.00181622
0.00181622
0.00178947
0.00178948
0.00181622
0.00178947
0.00178948
0.00181832
0.00178738
0.00181622
0.00178948
0.00178947
0.00178738
0.00178265
0.00175172
0.00178056
0.00178056
0.00175381
0.00175381
0.00178265
0.00175172
0.00178056
0.00178056
0.00175381
0.00175381
0.00178056
0.00175381
0.00175381
0.00178265
0.00175172
0.00178056
0.00175381
0.00175381
0.00175172
0.00174699
0.00171606
0.0017449
0.0017449
0.00171815
0.00171815
0.00174699
0.00171606
0.0017449
0.0017449
0.00171815
0.00171815
0.0017449
0.00171815
0.00171815
0.00174699
0.00171606
0.0017449
0.00171815
0.00171815
0.00171606
0.00171133
0.00168039
0.00170923
0.00170923
0.00168248
0.00168248
0.00171133
0.00168039
0.00170923
0.00170923
0.00168248
0.00168248
0.00170923
0.00168248
0.00168248
0.00171133
0.00168039
0.00170923
0.00168248
0.00168248
0.00168039
0.00167566
0.00164473
0.00167357
0.00167357
0.00164682
0.00164682
0.00167566
0.00164473
0.00167357
0.00167357
0.00164682
0.00164682
0.00167357
0.00164682
0.00164682
0.00167566
0.00164473
0.00167357
0.00164682
0.00164682
0.00164473
0.00164
0.00160906
0.0016379
0.0016379
0.00161115
0.00161115
0.00164
0.00160906
0.0016379
0.0016379
0.00161115
0.00161115
0.0016379
0.00161115
0.00161115
0.00164
0.00160906
0.0016379
0.00161115
0.00161115
0.00160906
0.00160433
0.0015734
0.00160224
0.00160224
0.00157549
0.00157549
0.00160433
0.0015734
0.00160224
0.00160224
0.00157549
0.00157549
0.00160224
0.00157549
0.00157549
0.00160433
0.0015734
0.00160224
0.00157549
0.00157549
0.0015734
0.00156867
0.00153773
0.00156657
0.00156657
0.00153982
0.00153982
0.00156867
0.00153773
0.00156657
0.00156657
0.00153982
0.00153982
0.00156657
0.00153982
0.00153982
0.00156867
0.00153773
0.00156657
0.00153982
0.00153982
0.00153773
0.001533
0.00150207
0.00153091
0.00153091
0.00150416
0.00150416
0.001533
0.00150207
0.00153091
0.00153091
0.00150416
0.00150416
0.00153091
0.00150416
0.00150416
0.001533
0.00150207
0.00153091
0.00150416
0.00150416
0.00150207
0.00149734
0.00146641
0.00149524
0.00149524
0.0014685
0.0014685
0.00149734
0.00146641
0.00149524
0.00149524
0.0014685
0.0014685
0.00149524
0.0014685
0.0014685
0.00149734
0.00146641
0.00149524
0.0014685
0.0014685
0.00146641
0.00146168
0.00143075
0.00145958
0.00145958
0.00143284
0.00143284
0.00146168
0.00143075
0.00145958
0.00145958
0.00143284
0.00143284
0.00145958
0.00143284
0.00143284
0.00146168
0.00143075
0.00145958
0.00143284
0.00143284
0.00143075
0.00142602
0.00139509
0.00142393
0.00142392
0.00139718
0.00139718
0.00142602
0.00139509
0.00142392
0.00142392
0.00139718
0.00139718
0.00142393
0.00139718
0.00139718
0.00142602
0.00139509
0.00142393
0.00139718
0.00139718
0.00139509
0.00139036
0.00135942
0.00138826
0.00138826
0.00136152
0.00136152
0.00139036
0.00135942
0.00138826
0.00138826
0.00136152
0.00136152
0.00138826
0.00136152
0.00136152
0.00139036
0.00135942
0.00138826
0.00136152
0.00136152
0.00135942
0.00135469
0.00132376
0.0013526
0.0013526
0.00132585
0.00132585
0.00135469
0.00132376
0.0013526
0.0013526
0.00132585
0.00132585
0.0013526
0.00132585
0.00132585
0.00135469
0.00132376
0.0013526
0.00132585
0.00132585
0.00132376
0.00131903
0.00128809
0.00131694
0.00131694
0.00129019
0.00129019
0.00131903
0.0012881
0.00131693
0.00131694
0.00129019
0.00129019
0.00131693
0.00129019
0.00129019
0.00131903
0.00128809
0.00131693
0.00129019
0.00129019
0.00128809
0.00128336
0.00125243
0.00128127
0.00128127
0.00125452
0.00125452
0.00128336
0.00125243
0.00128127
0.00128127
0.00125452
0.00125452
0.00128127
0.00125452
0.00125452
0.00128336
0.00125243
0.00128127
0.00125452
0.00125452
0.00125243
0.0012477
0.00121676
0.0012456
0.0012456
0.00121885
0.00121885
0.0012477
0.00121676
0.0012456
0.0012456
0.00121885
0.00121885
0.0012456
0.00121885
0.00121885
0.0012477
0.00121676
0.0012456
0.00121885
0.00121885
0.00121676
0.00121203
0.00118109
0.00120993
0.00120993
0.00118318
0.00118318
0.00121203
0.00118109
0.00120993
0.00120993
0.00118318
0.00118318
0.00120993
0.00118318
0.00118318
0.00121203
0.00118109
0.00120993
0.00118318
0.00118318
0.00118109
0.00117636
0.00114542
0.00117426
0.00117427
0.00114751
0.00114751
0.00117636
0.00114542
0.00117426
0.00117427
0.00114751
0.00114751
0.00117427
0.00114751
0.00114751
0.00117636
0.00114542
0.00117426
0.00114751
0.00114751
0.00114542
0.00114069
0.00110975
0.0011386
0.0011386
0.00111185
0.00111184
0.00114069
0.00110975
0.0011386
0.0011386
0.00111184
0.00111184
0.0011386
0.00111185
0.00111185
0.00114069
0.00110975
0.0011386
0.00111184
0.00111185
0.00110975
0.00110502
0.00107408
0.00110293
0.00110293
0.00107618
0.00107618
0.00110502
0.00107409
0.00110293
0.00110293
0.00107618
0.00107618
0.00110293
0.00107618
0.00107618
0.00110502
0.00107409
0.00110293
0.00107618
0.00107618
0.00107409
0.00106935
0.00103841
0.00106726
0.00106726
0.00104051
0.00104051
0.00106935
0.00103842
0.00106726
0.00106726
0.00104051
0.00104051
0.00106726
0.00104051
0.00104051
0.00106935
0.00103841
0.00106726
0.00104051
0.00104051
0.00103842
0.00103368
0.00100274
0.00103159
0.00103159
0.00100484
0.00100484
0.00103368
0.00100274
0.00103159
0.00103159
0.00100483
0.00100483
0.00103159
0.00100483
0.00100484
0.00103368
0.00100274
0.00103159
0.00100483
0.00100483
0.00100274
0.000998012
0.000967071
0.000995918
0.000995917
0.000969164
0.000969163
0.000998013
0.000967072
0.000995916
0.000995917
0.000969164
0.000969163
0.000995917
0.000969163
0.000969164
0.000998012
0.000967071
0.000995918
0.000969162
0.000969163
0.000967072
0.000962341
0.0009314
0.000960246
0.000960245
0.000933492
0.000933492
0.000962341
0.0009314
0.000960245
0.000960245
0.000933492
0.000933492
0.000960246
0.000933491
0.000933492
0.000962341
0.0009314
0.000960245
0.000933491
0.000933492
0.0009314
0.00092667
0.000895729
0.000924575
0.000924574
0.000897821
0.000897821
0.000926669
0.00089573
0.000924574
0.000924574
0.000897822
0.000897821
0.000924574
0.000897821
0.000897822
0.000926669
0.00089573
0.000924574
0.000897822
0.000897823
0.00089573
0.000890999
0.000860061
0.000888904
0.000888904
0.000862153
0.000862153
0.000890999
0.000860061
0.000888904
0.000888904
0.000862153
0.000862154
0.000888905
0.000862153
0.000862154
0.000890999
0.000860062
0.000888905
0.000862154
0.000862155
0.000860062
0.00085533
0.000824394
0.000853235
0.000853235
0.000826486
0.000826486
0.00085533
0.000824394
0.000853235
0.000853236
0.000826487
0.000826487
0.000853237
0.000826486
0.000826487
0.000855331
0.000824395
0.000853238
0.000826486
0.000826487
0.000824395
0.000819664
0.000788728
0.000817569
0.000817569
0.00079082
0.00079082
0.000819664
0.000788728
0.000817569
0.000817569
0.000790821
0.000790821
0.00081757
0.00079082
0.000790821
0.000819665
0.000788729
0.00081757
0.00079082
0.000790821
0.000788729
0.000783998
0.000753064
0.000781903
0.000781903
0.000755155
0.000755155
0.000783998
0.000753063
0.000781903
0.000781904
0.000755156
0.000755156
0.000781904
0.000755155
0.000755156
0.000783999
0.000753063
0.000781904
0.000755154
0.000755155
0.000753064
0.000748334
0.0007174
0.000746239
0.000746238
0.000719491
0.000719491
0.000748334
0.000717399
0.000746239
0.000746239
0.000719491
0.000719491
0.00074624
0.000719491
0.000719492
0.000748334
0.000717399
0.00074624
0.00071949
0.000719491
0.0007174
0.00071267
0.000681736
0.000710575
0.000710574
0.000683828
0.000683827
0.000712669
0.000681736
0.000710575
0.000710575
0.000683827
0.000683827
0.000710576
0.000683827
0.000683828
0.000712669
0.000681736
0.000710575
0.000683828
0.000683828
0.000681737
0.000677006
0.000646073
0.000674911
0.000674911
0.000648165
0.000648165
0.000677006
0.000646073
0.000674911
0.000674911
0.000648164
0.000648164
0.000674912
0.000648164
0.000648165
0.000677006
0.000646073
0.000674912
0.000648165
0.000648165
0.000646074
0.000641344
0.00061041
0.000639249
0.000639248
0.000612502
0.000612502
0.000641343
0.00061041
0.000639248
0.000639248
0.000612501
0.000612501
0.000639249
0.000612501
0.000612502
0.000641343
0.00061041
0.000639249
0.000612501
0.000612503
0.000610411
0.000605681
0.000574747
0.000603586
0.000603586
0.000576839
0.000576839
0.00060568
0.000574747
0.000603585
0.000603586
0.000576838
0.000576839
0.000603587
0.000576838
0.000576839
0.000605681
0.000574748
0.000603587
0.000576838
0.00057684
0.000574748
0.000570017
0.000539085
0.000567923
0.000567923
0.000541178
0.000541177
0.000570018
0.000539086
0.000567923
0.000567923
0.000541177
0.000541177
0.000567924
0.000541176
0.000541177
0.000570019
0.000539086
0.000567924
0.000541176
0.000541177
0.000539086
0.000534355
0.000503423
0.000532261
0.000532261
0.000505516
0.000505515
0.000534356
0.000503423
0.000532261
0.000532261
0.000505515
0.000505515
0.000532262
0.000505514
0.000505515
0.000534356
0.000503423
0.000532262
0.000505514
0.000505515
0.000503424
0.000498693
0.000467761
0.0004966
0.000496599
0.000469852
0.000469852
0.000498694
0.00046776
0.000496599
0.000496599
0.000469852
0.000469852
0.0004966
0.000469851
0.000469852
0.000498693
0.00046776
0.000496599
0.000469852
0.000469852
0.000467761
0.00046303
0.000432097
0.000460937
0.000460936
0.000434189
0.000434188
0.00046303
0.000432097
0.000460936
0.000460936
0.000434188
0.000434188
0.000460937
0.000434187
0.000434188
0.00046303
0.000432097
0.000460937
0.000434189
0.000434189
0.000432098
0.000427367
0.000396433
0.000425273
0.000425272
0.000398523
0.000398524
0.000427366
0.000396432
0.000425272
0.000425272
0.000398523
0.000398523
0.000425273
0.000398523
0.000398524
0.000427367
0.000396433
0.000425273
0.000398523
0.000398524
0.000396433
0.000391702
0.000360767
0.000389608
0.000389608
0.000362857
0.000362857
0.000391701
0.000360767
0.000389607
0.000389608
0.000362857
0.000362857
0.000389608
0.000362857
0.000362858
0.000391702
0.000360767
0.000389609
0.000362857
0.000362858
0.000360768
0.000356035
0.0003251
0.000353942
0.000353942
0.000327191
0.000327191
0.000356035
0.000325101
0.000353942
0.000353942
0.00032719
0.00032719
0.000353943
0.00032719
0.000327191
0.000356035
0.0003251
0.000353943
0.00032719
0.000327191
0.000325101
0.000320367
0.000289434
0.000318275
0.000318275
0.000291524
0.000291523
0.000320367
0.000289434
0.000318275
0.000318275
0.000291523
0.000291523
0.000318276
0.000291522
0.000291524
0.000320367
0.000289434
0.000318276
0.000291523
0.000291524
0.000289435
0.000284698
0.000253766
0.000282608
0.000282608
0.000255855
0.000255855
0.000284698
0.000253767
0.000282608
0.000282608
0.000255854
0.000255854
0.000282609
0.000255854
0.000255855
0.000284698
0.000253767
0.000282609
0.000255854
0.000255855
0.000253767
0.000249027
0.000218099
0.000246941
0.00024694
0.000220184
0.000220185
0.000249027
0.000218099
0.00024694
0.00024694
0.000220184
0.000220184
0.000246941
0.000220184
0.000220185
0.000249028
0.000218099
0.000246941
0.000220184
0.000220184
0.000218099
0.000213354
0.00018243
0.000211272
0.000211271
0.000184512
0.000184512
0.000213354
0.00018243
0.000211271
0.000211271
0.000184512
0.000184512
0.000211272
0.000184511
0.000184513
0.000213354
0.00018243
0.000211272
0.000184512
0.000184512
0.000182431
0.000177676
0.000146759
0.000175601
0.0001756
0.000148836
0.000148836
0.000177675
0.000146759
0.0001756
0.0001756
0.000148836
0.000148836
0.000175601
0.000148836
0.000148837
0.000177676
0.000146759
0.000175601
0.000148836
0.000148837
0.00014676
0.000141989
0.000111083
0.000139926
0.000139925
0.000113153
0.000113153
0.000141988
0.000111083
0.000139925
0.000139925
0.000113153
0.000113153
0.000139926
0.000113153
0.000113153
0.000141989
0.000111082
0.000139926
0.000113153
0.000113153
0.000111083
0.000106287
7.53957e-05
0.000104243
0.000104243
7.7457e-05
7.74571e-05
0.000106287
7.53963e-05
0.000104243
0.000104243
7.74573e-05
7.74565e-05
0.000104244
7.7457e-05
7.74561e-05
0.000106287
7.53947e-05
0.000104244
7.74558e-05
7.74561e-05
7.53947e-05
7.05683e-05
3.98515e-05
6.85513e-05
6.8551e-05
4.19532e-05
4.19542e-05
7.05682e-05
3.98524e-05
6.85507e-05
6.855e-05
4.19524e-05
4.19503e-05
6.8551e-05
4.19529e-05
4.19499e-05
7.05677e-05
3.98489e-05
6.85508e-05
4.19498e-05
4.19497e-05
3.98488e-05
3.50867e-05
7.07535e-06
3.33849e-05
3.33861e-05
9.75037e-06
9.74975e-06
3.5087e-05
7.07506e-06
3.33849e-05
3.33821e-05
9.74957e-06
9.74587e-06
3.33815e-05
9.74833e-06
9.74453e-06
3.50836e-05
7.07225e-06
3.33816e-05
9.74697e-06
9.74687e-06
7.07123e-06
3.79916e-06
3.83366e-06
3.82985e-06
3.79972e-06
3.82501e-06
3.82535e-06
4.54669e-06
4.54551e-06
4.54514e-06
3.82777e-06
3.7976e-06
3.82532e-06
0.0035331
0.0035367
0.00353515
0.00353516
0.00355858
0.00353772
0.00356606
0.0035366
0.00355853
0.00353781
0.00353662
0.00356505
0.00354704
0.00356803
0.00356826
0.00350386
0.00351827
0.00352198
0.00349603
0.00349528
0.00349956
0.00350382
0.00351826
0.00352199
0.00349602
0.00352027
0.00352031
0.00352031
0.00349277
0.00349275
0.00349274
0.00349277
0.00350349
0.00351629
0.00352087
0.00351095
0.00352324
0.00350047
0.00351132
0.00349521
0.00349953
0.00350348
0.00352089
0.00351637
0.00351095
0.00352317
0.00351131
0.00350061
0.0035222
0.00352214
0.00350799
0.00350045
0.00350047
0.00347676
0.00349061
0.00349031
0.00347502
0.00348788
0.00347403
0.00347681
0.00349061
0.00349021
0.003475
0.00348387
0.00348388
0.00348388
0.00345703
0.00345703
0.00345701
0.00345703
0.00347447
0.00348933
0.0034828
0.0034741
0.00348775
0.00347513
0.003474
0.00348781
0.00347419
0.00347446
0.00348285
0.00348938
0.00347403
0.00348777
0.00347397
0.00347526
0.00349084
0.00349091
0.00347282
0.00347586
0.00347585
0.0034347
0.00344979
0.0034506
0.00343368
0.00344854
0.00343275
0.00343473
0.00344975
0.00345067
0.00343366
0.0034471
0.00344709
0.00344711
0.00341405
0.00341405
0.00341404
0.00341405
0.0034335
0.00344936
0.00344563
0.00343533
0.00344849
0.00343405
0.00343513
0.00344854
0.00343281
0.00343348
0.00344559
0.00344936
0.00343533
0.00344848
0.00343519
0.00343407
0.00344984
0.00344995
0.00343253
0.00343404
0.00343402
0.00338809
0.00340486
0.00340627
0.00338683
0.00340419
0.00338625
0.00338814
0.00340483
0.00340624
0.00338683
0.00340226
0.00340226
0.00340227
0.00336619
0.00336619
0.00336618
0.0033662
0.00338705
0.00340481
0.00340104
0.0033892
0.00340435
0.00338738
0.00338908
0.00340421
0.00338629
0.00338703
0.00340109
0.00340478
0.00338916
0.00340436
0.00338908
0.00338743
0.00340499
0.00340501
0.00338609
0.00338695
0.00338695
0.0033395
0.00335642
0.00335763
0.00333829
0.00335603
0.00333794
0.00333942
0.0033564
0.0033577
0.00333829
0.00335413
0.00335412
0.00335413
0.003318
0.00331799
0.00331801
0.00331802
0.00333869
0.0033565
0.00335291
0.00334097
0.00335622
0.00333893
0.00334093
0.00335603
0.00333793
0.00333869
0.0033529
0.00335649
0.00334092
0.00335622
0.00334097
0.00333889
0.00335647
0.00335647
0.00333786
0.00333833
0.00333833
0.00329078
0.00330802
0.00330899
0.00329001
0.00330776
0.00328976
0.00329081
0.00330803
0.00330896
0.00329
0.00330598
0.00330598
0.00330599
0.00326994
0.00326994
0.00326994
0.00326995
0.0032905
0.0033081
0.00330495
0.00329293
0.00330798
0.00329057