/*--------------------------------*- C++ -*----------------------------------*\
| =========                 |                                                 |
| \\      /  F ield         | OpenFOAM: The Open Source CFD Toolbox           |
|  \\    /   O peration     | Version:  v1906                                 |
|   \\  /    A nd           | Web:      www.OpenFOAM.com                      |
|    \\/     M anipulation  |                                                 |
\*---------------------------------------------------------------------------*/
FoamFile
{
    version     2.0;
    format      ascii;
    class       volScalarField;
    location    "312.5";
    object      epsilon;
}
// * * * * * * * * * * * * * * * * * * * * * * * * * * * * * * * * * * * * * //

dimensions      [0 2 -3 0 0 0 0];


internalField   nonuniform List<scalar> 
171728
(
3.57012e-09
4.81262e-09
3.4417e-09
5.03115e-09
3.53928e-09
4.39756e-09
3.25035e-09
4.61969e-09
3.50091e-09
4.00582e-09
3.06969e-09
4.31152e-09
3.46719e-09
3.6644e-09
2.9177e-09
4.04679e-09
3.43868e-09
3.369e-09
2.7901e-09
3.80902e-09
3.41356e-09
3.11842e-09
2.68995e-09
3.45667e-09
3.39292e-09
2.90632e-09
2.61813e-09
3.10394e-09
3.37649e-09
2.74475e-09
2.5785e-09
2.82463e-09
3.36267e-09
2.62984e-09
2.58575e-09
2.58343e-09
3.35456e-09
2.55239e-09
2.6368e-09
2.44712e-09
3.35352e-09
2.51317e-09
2.74066e-09
2.35296e-09
3.35814e-09
2.50918e-09
2.87783e-09
2.30366e-09
3.36944e-09
2.55178e-09
3.01118e-09
2.30859e-09
3.38621e-09
2.65946e-09
3.22025e-09
2.36451e-09
3.40841e-09
2.84837e-09
3.59068e-09
2.49411e-09
3.43473e-09
3.15137e-09
4.09217e-09
2.74187e-09
3.46836e-09
3.62688e-09
4.5949e-09
3.17601e-09
3.50763e-09
4.40266e-09
5.37333e-09
3.90925e-09
3.55436e-09
5.51328e-09
6.2559e-09
5.37447e-09
3.61076e-09
7.17127e-09
8.02016e-09
7.41252e-09
3.6803e-09
9.70148e-09
1.04117e-08
1.17672e-08
3.7657e-09
1.342e-08
1.34025e-08
1.83299e-08
3.88365e-09
1.80244e-08
1.82063e-08
2.96337e-08
4.02231e-09
2.48264e-08
2.48368e-08
4.78463e-08
4.23037e-09
3.32256e-08
3.25315e-08
7.50977e-08
4.4754e-09
4.6206e-08
4.54983e-08
1.10328e-07
4.83904e-09
5.93527e-08
5.84606e-08
1.65333e-07
5.31593e-09
7.49493e-08
7.5283e-08
2.22996e-07
5.89232e-09
1.01227e-07
9.58967e-08
2.89891e-07
6.79331e-09
1.15387e-07
1.18899e-07
3.82936e-07
7.69255e-09
1.47129e-07
1.4504e-07
4.44093e-07
9.23931e-09
1.73879e-07
1.80029e-07
5.27303e-07
1.10048e-08
2.0861e-07
2.06156e-07
6.01981e-07
1.35216e-08
2.41444e-07
2.50748e-07
6.576e-07
1.57797e-08
2.81186e-07
2.88869e-07
7.17761e-07
2.00409e-08
3.25086e-07
3.15099e-07
7.66399e-07
2.41514e-08
3.66542e-07
3.76742e-07
8.10712e-07
2.98067e-08
4.02409e-07
4.13883e-07
8.54949e-07
3.53762e-08
4.82076e-07
4.62915e-07
8.96222e-07
4.47483e-08
5.14052e-07
5.01315e-07
9.19075e-07
5.15311e-08
5.48765e-07
5.61553e-07
9.59697e-07
6.52345e-08
6.04572e-07
6.07658e-07
9.93543e-07
7.62819e-08
6.52967e-07
6.51732e-07
1.01776e-06
9.06716e-08
7.03023e-07
7.04838e-07
1.05066e-06
1.07571e-07
7.38115e-07
7.40219e-07
1.07542e-06
1.23618e-07
8.01852e-07
7.91178e-07
1.1104e-06
1.51655e-07
8.35838e-07
8.40268e-07
1.13565e-06
1.65716e-07
8.60715e-07
8.64057e-07
1.15169e-06
1.932e-07
9.1434e-07
9.14119e-07
1.18892e-06
2.20164e-07
9.42166e-07
9.44814e-07
1.21011e-06
2.47216e-07
9.78984e-07
9.72182e-07
1.23006e-06
2.68845e-07
1.00206e-06
1.00711e-06
1.25287e-06
3.06274e-07
1.03535e-06
1.02949e-06
1.27373e-06
3.33559e-07
1.0588e-06
1.06161e-06
1.29431e-06
3.64834e-07
1.08263e-06
1.07635e-06
1.3088e-06
3.94244e-07
1.10188e-06
1.10833e-06
1.33272e-06
4.26351e-07
1.12666e-06
1.12104e-06
1.34479e-06
4.54793e-07
1.13505e-06
1.14197e-06
1.36038e-06
4.82316e-07
1.16121e-06
1.15393e-06
1.37544e-06
5.05308e-07
1.17317e-06
1.17658e-06
1.38908e-06
5.32416e-07
1.18292e-06
1.18677e-06
1.40005e-06
5.56896e-07
1.19839e-06
1.19896e-06
1.40721e-06
5.74465e-07
1.20541e-06
1.20866e-06
1.41949e-06
5.96975e-07
1.2224e-06
1.2219e-06
1.42825e-06
6.14617e-07
1.22438e-06
1.22302e-06
1.43049e-06
6.25461e-07
1.2262e-06
1.22609e-06
1.43032e-06
6.5559e-07
1.25519e-06
1.25597e-06
1.47018e-06
6.68293e-07
1.25117e-06
1.25101e-06
1.46835e-06
6.50908e-07
1.20336e-06
1.20297e-06
1.40924e-06
6.29296e-07
1.17229e-06
1.17209e-06
1.3649e-06
6.42581e-07
1.20016e-06
1.20001e-06
1.40649e-06
7.02794e-07
1.2665e-06
1.26638e-06
1.49007e-06
7.5318e-07
1.32379e-06
1.3237e-06
1.56337e-06
7.73017e-07
1.34836e-06
1.34834e-06
1.59867e-06
7.51789e-07
1.30656e-06
1.30662e-06
1.54581e-06
6.8847e-07
1.21223e-06
1.21229e-06
1.42276e-06
6.39212e-07
1.14642e-06
1.14647e-06
1.33824e-06
6.2341e-07
1.12586e-06
1.1259e-06
1.31998e-06
6.39541e-07
1.13904e-06
1.13908e-06
1.34788e-06
6.65181e-07
1.15718e-06
1.15724e-06
1.37927e-06
6.72281e-07
1.16576e-06
1.16582e-06
1.39919e-06
6.72042e-07
1.16796e-06
1.16803e-06
1.40878e-06
6.70981e-07
1.16819e-06
1.16826e-06
1.4127e-06
6.7027e-07
1.168e-06
1.16807e-06
1.41417e-06
6.69768e-07
1.16773e-06
1.1678e-06
1.41441e-06
6.69547e-07
1.16757e-06
1.16764e-06
1.41423e-06
6.69542e-07
1.16764e-06
1.16771e-06
1.41457e-06
6.69506e-07
1.1676e-06
1.16767e-06
1.41446e-06
6.69495e-07
1.16759e-06
1.16766e-06
1.41434e-06
6.69505e-07
1.16763e-06
1.16769e-06
1.41456e-06
6.69501e-07
1.16761e-06
1.16768e-06
1.41429e-06
6.69512e-07
1.16766e-06
1.16772e-06
1.41451e-06
6.69509e-07
1.16767e-06
1.16774e-06
1.41438e-06
6.69267e-07
1.1674e-06
1.16746e-06
1.41411e-06
6.51198e-07
1.1122e-06
1.11218e-06
1.37259e-06
5.13497e-09
4.41734e-09
4.11871e-09
4.84376e-09
4.2494e-09
4.35617e-09
3.56482e-09
3.55359e-09
3.53642e-09
3.69651e-09
4.23911e-09
5.39777e-09
5.14148e-09
3.79833e-09
4.34374e-09
5.08718e-09
5.10985e-09
4.68309e-09
4.78242e-09
4.51969e-09
4.46309e-09
4.17813e-09
4.81702e-09
4.40735e-09
4.63068e-09
4.82607e-09
4.32863e-09
4.50198e-09
7.42226e-09
4.50331e-09
7.24479e-09
5.12401e-09
4.66191e-09
4.74907e-09
3.29916e-09
4.44864e-09
4.6879e-09
4.65157e-09
4.26162e-09
4.35364e-09
4.0725e-09
4.05092e-09
3.79744e-09
4.37446e-09
4.00173e-09
4.22533e-09
4.39151e-09
3.93796e-09
4.08191e-09
7.16019e-09
4.09908e-09
6.89494e-09
4.63081e-09
4.20449e-09
4.34923e-09
3.11324e-09
4.05736e-09
4.3696e-09
4.23405e-09
3.89459e-09
3.95721e-09
3.71343e-09
3.69635e-09
3.47734e-09
3.97329e-09
3.65453e-09
3.84857e-09
3.98601e-09
3.6006e-09
3.71787e-09
6.79951e-09
3.74552e-09
6.48546e-09
4.17769e-09
3.81833e-09
3.95679e-09
2.95315e-09
3.66741e-09
4.09743e-09
3.87054e-09
3.57384e-09
3.61509e-09
3.40526e-09
3.39044e-09
3.20718e-09
3.63014e-09
3.35815e-09
3.52414e-09
3.63481e-09
3.31113e-09
3.40245e-09
6.38136e-09
3.4382e-09
6.00627e-09
3.79579e-09
3.4916e-09
3.57973e-09
2.8203e-09
3.34483e-09
3.85568e-09
3.55342e-09
3.29611e-09
3.32068e-09
3.14662e-09
3.13083e-09
2.98036e-09
3.33785e-09
3.10814e-09
3.24526e-09
3.33135e-09
3.06451e-09
3.13752e-09
5.83506e-09
3.17814e-09
5.12919e-09
3.47246e-09
3.20739e-09
3.27511e-09
2.71119e-09
3.08988e-09
3.50248e-09
3.27937e-09
3.05595e-09
3.07246e-09
2.93022e-09
2.9179e-09
2.79464e-09
3.09179e-09
2.89527e-09
3.00998e-09
3.07899e-09
2.86243e-09
2.92211e-09
4.84175e-09
2.95477e-09
3.93099e-09
3.19195e-09
2.97113e-09
3.03557e-09
2.63364e-09
2.89187e-09
3.12334e-09
3.04298e-09
2.85051e-09
2.87186e-09
2.75545e-09
2.75189e-09
2.6523e-09
2.88272e-09
2.71547e-09
2.81904e-09
2.87517e-09
2.70477e-09
2.75452e-09
3.6534e-09
2.77964e-09
2.97896e-09
2.95944e-09
2.78122e-09
2.84874e-09
2.58472e-09
2.73435e-09
2.84423e-09
2.84139e-09
2.68451e-09
2.71669e-09
2.62187e-09
2.62922e-09
2.54644e-09
2.70669e-09
2.56996e-09
2.67169e-09
2.71901e-09
2.5891e-09
2.63144e-09
2.80655e-09
2.65431e-09
2.4286e-09
2.77288e-09
2.63395e-09
2.6999e-09
2.58066e-09
2.61002e-09
2.5909e-09
2.67945e-09
2.55488e-09
2.60449e-09
2.5251e-09
2.54467e-09
2.47659e-09
2.56515e-09
2.45658e-09
2.56633e-09
2.60653e-09
2.51249e-09
2.54836e-09
2.33664e-09
2.56717e-09
2.15443e-09
2.62987e-09
2.52433e-09
2.58487e-09
2.61836e-09
2.52374e-09
2.44701e-09
2.55398e-09
2.46095e-09
2.53015e-09
2.46409e-09
2.49967e-09
2.44337e-09
2.4561e-09
2.37726e-09
2.49773e-09
2.53254e-09
2.47122e-09
2.50197e-09
2.1194e-09
2.51979e-09
2.08281e-09
2.52415e-09
2.45271e-09
2.50703e-09
2.7113e-09
2.47489e-09
2.34907e-09
2.46378e-09
2.40087e-09
2.495e-09
2.44011e-09
2.49387e-09
2.44661e-09
2.38058e-09
2.33229e-09
2.46679e-09
2.49656e-09
2.46985e-09
2.49809e-09
2.08397e-09
2.50677e-09
2.12023e-09
2.45637e-09
2.42028e-09
2.47019e-09
2.84295e-09
2.47134e-09
2.29317e-09
2.40926e-09
2.37861e-09
2.4982e-09
2.45421e-09
2.53153e-09
2.49295e-09
2.34211e-09
2.32282e-09
2.47481e-09
2.50293e-09
2.50927e-09
2.54093e-09
2.13541e-09
2.53564e-09
2.19036e-09
2.43127e-09
2.42352e-09
2.47619e-09
2.97819e-09
2.51257e-09
2.28812e-09
2.39677e-09
2.40718e-09
2.54906e-09
2.51121e-09
2.62502e-09
2.58956e-09
2.34171e-09
2.35921e-09
2.52675e-09
2.55912e-09
2.61023e-09
2.63882e-09
2.216e-09
2.62591e-09
2.32593e-09
2.44353e-09
2.47983e-09
2.53073e-09
3.15317e-09
2.61075e-09
2.33144e-09
2.43847e-09
2.50299e-09
2.65704e-09
2.62643e-09
2.79617e-09
2.76429e-09
2.39161e-09
2.46034e-09
2.64516e-09
2.67552e-09
2.77568e-09
2.81495e-09
2.37113e-09
2.79139e-09
2.53888e-09
2.5163e-09
2.6303e-09
2.64452e-09
3.48271e-09
2.78174e-09
2.43908e-09
2.55642e-09
2.71118e-09
2.8524e-09
2.82333e-09
3.07679e-09
3.04631e-09
2.51404e-09
2.66509e-09
2.83148e-09
2.87412e-09
3.05848e-09
3.09913e-09
2.60706e-09
3.05965e-09
2.84527e-09
2.69513e-09
2.90404e-09
2.84069e-09
3.93133e-09
3.05511e-09
2.64387e-09
2.80264e-09
3.08041e-09
3.17038e-09
3.1387e-09
3.51737e-09
3.49214e-09
2.75542e-09
3.04076e-09
3.1537e-09
3.18679e-09
3.51632e-09
3.55757e-09
2.95523e-09
3.49106e-09
3.31335e-09
3.00664e-09
3.30491e-09
3.15196e-09
4.43822e-09
3.48918e-09
3.01342e-09
3.24122e-09
3.75405e-09
3.66126e-09
3.63568e-09
4.19966e-09
4.19235e-09
3.1917e-09
3.71579e-09
3.66301e-09
3.69637e-09
4.18871e-09
4.21641e-09
3.4665e-09
4.17327e-09
4.04062e-09
3.45726e-09
3.98785e-09
3.6333e-09
5.20246e-09
4.16192e-09
3.67504e-09
4.02169e-09
4.91114e-09
4.42404e-09
4.4291e-09
5.24725e-09
5.21014e-09
4.00714e-09
4.80441e-09
4.41265e-09
4.44339e-09
5.22776e-09
5.26815e-09
4.25866e-09
5.17894e-09
5.13239e-09
4.24724e-09
5.03094e-09
4.37178e-09
5.97678e-09
5.24507e-09
4.91674e-09
5.37139e-09
6.89199e-09
5.57811e-09
5.54558e-09
6.80936e-09
6.78535e-09
5.23192e-09
6.92471e-09
5.55857e-09
5.59126e-09
6.77425e-09
6.78994e-09
5.46316e-09
6.71319e-09
6.62054e-09
5.42492e-09
7.064e-09
5.56183e-09
7.53941e-09
6.65574e-09
6.73246e-09
7.67131e-09
1.03006e-08
7.32633e-09
7.25098e-09
8.98255e-09
9.16945e-09
7.57584e-09
1.07098e-08
7.29212e-09
7.26807e-09
8.94225e-09
9.10425e-09
7.12424e-09
9.0684e-09
8.99721e-09
7.82104e-09
1.05815e-08
7.15388e-09
9.6902e-09
9.03158e-09
1.05089e-08
1.13533e-08
1.73568e-08
9.70715e-09
9.80845e-09
1.24947e-08
1.23671e-08
1.19457e-08
1.61539e-08
9.64559e-09
9.86454e-09
1.2431e-08
1.21656e-08
9.71869e-09
1.22411e-08
1.22372e-08
1.19047e-08
1.58953e-08
9.7374e-09
1.2364e-08
1.21928e-08
1.63002e-08
1.90931e-08
2.57483e-08
1.32868e-08
1.35612e-08
1.69426e-08
1.67906e-08
1.86265e-08
2.66404e-08
1.32261e-08
1.32746e-08
1.68647e-08
1.69896e-08
1.33171e-08
1.66269e-08
1.68381e-08
1.75908e-08
2.76549e-08
1.3264e-08
1.70832e-08
1.67653e-08
2.68433e-08
3.02335e-08
4.34656e-08
1.86385e-08
1.81698e-08
2.3225e-08
2.32569e-08
2.89561e-08
4.44926e-08
1.85777e-08
1.83605e-08
2.29941e-08
2.29691e-08
1.82235e-08
2.30219e-08
2.31136e-08
3.0284e-08
4.27557e-08
1.81172e-08
2.29264e-08
2.29623e-08
4.33741e-08
4.68225e-08
6.75157e-08
2.50714e-08
2.50357e-08
3.0821e-08
3.11696e-08
4.86327e-08
6.7382e-08
2.49063e-08
2.50608e-08
3.08214e-08
3.1373e-08
2.49995e-08
3.09544e-08
3.15454e-08
4.72782e-08
6.87213e-08
2.48049e-08
3.04611e-08
3.14461e-08
6.83546e-08
7.21942e-08
1.09009e-07
3.35389e-08
3.35493e-08
4.29507e-08
4.32214e-08
7.4429e-08
1.049e-07
3.341e-08
3.33487e-08
4.27603e-08
4.29131e-08
3.39933e-08
4.30196e-08
4.20054e-08
7.39912e-08
1.03419e-07
3.3874e-08
4.24212e-08
4.15693e-08
1.02639e-07
1.18398e-07
1.44198e-07
4.53427e-08
4.63122e-08
5.50139e-08
5.51572e-08
1.14936e-07
1.51367e-07
4.5263e-08
4.63027e-08
5.50681e-08
5.50448e-08
4.52136e-08
5.48157e-08
5.58449e-08
1.15742e-07
1.49447e-07
4.4846e-08
5.43793e-08
5.54029e-08
1.53507e-07
1.56194e-07
2.16159e-07
5.93529e-08
5.9758e-08
7.22793e-08
7.19942e-08
1.59326e-07
2.17343e-07
5.93409e-08
5.89305e-08
7.22154e-08
7.24805e-08
5.95488e-08
7.15648e-08
7.27636e-08
1.57001e-07
2.13478e-07
5.88175e-08
7.08642e-08
7.23489e-08
2.08376e-07
2.27423e-07
2.81576e-07
7.6757e-08
7.52869e-08
9.10856e-08
9.5053e-08
2.2951e-07
2.88141e-07
7.67908e-08
7.6365e-08
9.10053e-08
9.1198e-08
7.68876e-08
9.44156e-08
8.98117e-08
2.27357e-07
2.76333e-07
7.65304e-08
9.08103e-08
8.97658e-08
2.78204e-07
2.97485e-07
3.52643e-07
9.56851e-08
1.01977e-07
1.13697e-07
1.12546e-07
3.1348e-07
3.62133e-07
9.58368e-08
9.70584e-08
1.12087e-07
1.12686e-07
9.66583e-08
1.11977e-07
1.1502e-07
2.91578e-07
3.57815e-07
9.60323e-08
1.12388e-07
1.13639e-07
3.65183e-07
3.70827e-07
4.38704e-07
1.21115e-07
1.16079e-07
1.38326e-07
1.386e-07
3.6877e-07
4.23141e-07
1.19114e-07
1.18462e-07
1.3987e-07
1.38439e-07
1.19503e-07
1.38266e-07
1.3911e-07
3.72191e-07
4.31294e-07
1.18676e-07
1.3776e-07
1.38152e-07
4.27443e-07
4.50528e-07
5.0043e-07
1.42741e-07
1.47208e-07
1.64696e-07
1.66668e-07
4.51733e-07
5.19717e-07
1.44736e-07
1.45e-07
1.63675e-07
1.69455e-07
1.46572e-07
1.65596e-07
1.65953e-07
4.48268e-07
5.18378e-07
1.45566e-07
1.71911e-07
1.65242e-07
5.14031e-07
5.1807e-07
5.89627e-07
1.7538e-07
1.74785e-07
2.02192e-07
2.02085e-07
5.30827e-07
5.83888e-07
1.73916e-07
1.78681e-07
2.0044e-07
1.98889e-07
1.73788e-07
2.02087e-07
2.03569e-07
5.34939e-07
5.75481e-07
1.73063e-07
1.99212e-07
2.02467e-07
5.84973e-07
6.06821e-07
6.444e-07
2.0847e-07
2.08809e-07
2.35874e-07
2.31582e-07
6.00711e-07
6.43317e-07
2.07224e-07
2.04052e-07
2.36065e-07
2.32748e-07
2.11929e-07
2.29842e-07
2.30973e-07
5.88628e-07
6.43244e-07
2.10716e-07
2.37709e-07
2.2972e-07
6.44653e-07
6.56725e-07
7.04126e-07
2.47655e-07
2.42863e-07
2.71943e-07
2.73139e-07
6.56365e-07
7.0232e-07
2.47044e-07
2.47272e-07
2.70097e-07
2.79522e-07
2.39989e-07
2.74079e-07
2.76675e-07
6.62215e-07
7.11211e-07
2.38751e-07
2.82538e-07
2.76001e-07
7.02982e-07
7.15556e-07
7.50193e-07
2.78095e-07
2.80234e-07
3.11534e-07
3.12225e-07
7.16434e-07
7.60131e-07
2.76107e-07
2.85171e-07
3.09196e-07
3.03462e-07
2.86238e-07
3.10561e-07
3.09846e-07
7.20504e-07
7.4334e-07
2.85928e-07
3.05696e-07
3.07931e-07
7.54984e-07
7.65042e-07
8.06419e-07
3.27066e-07
3.27405e-07
3.59114e-07
3.61972e-07
7.72598e-07
7.95964e-07
3.25196e-07
3.14475e-07
3.59394e-07
3.60805e-07
3.2146e-07
3.599e-07
3.60467e-07
7.55927e-07
8.0666e-07
3.18243e-07
3.61214e-07
3.59513e-07
7.99165e-07
8.16044e-07
8.39943e-07
3.66143e-07
3.68504e-07
3.99385e-07
3.90102e-07
8.03983e-07
8.29859e-07
3.67014e-07
3.72942e-07
4.01177e-07
3.97706e-07
3.69298e-07
3.88816e-07
3.9608e-07
8.18739e-07
8.43796e-07
3.69964e-07
4.06474e-07
3.96454e-07
8.42245e-07
8.50397e-07
8.80124e-07
4.13928e-07
4.03016e-07
4.45513e-07
4.64558e-07
8.44397e-07
8.98674e-07
4.14474e-07
4.08071e-07
4.43216e-07
4.51327e-07
4.10863e-07
4.64687e-07
4.60453e-07
8.535e-07
8.81498e-07
4.09791e-07
4.48818e-07
4.57326e-07
8.88e-07
8.90304e-07
9.18599e-07
4.56466e-07
4.82831e-07
5.00199e-07
5.11849e-07
9.09184e-07
9.19643e-07
4.53432e-07
4.64786e-07
4.98977e-07
4.91876e-07
4.71983e-07
5.09009e-07
4.93286e-07
8.91412e-07
9.13918e-07
4.68979e-07
4.93097e-07
4.91513e-07
9.10902e-07
9.27673e-07
9.4655e-07
5.1176e-07
5.17201e-07
5.38091e-07
5.37379e-07
9.25048e-07
9.43936e-07
5.12672e-07
5.00668e-07
5.38891e-07
5.46397e-07
5.00489e-07
5.36071e-07
5.37967e-07
9.22679e-07
9.51207e-07
4.99587e-07
5.44251e-07
5.39488e-07
9.48142e-07
9.5509e-07
9.83639e-07
5.50748e-07
5.48627e-07
5.99631e-07
5.96124e-07
9.54148e-07
9.84036e-07
5.48448e-07
5.63556e-07
5.94039e-07
5.96599e-07
5.55089e-07
5.94394e-07
5.99262e-07
9.61891e-07
9.83902e-07
5.55947e-07
5.96636e-07
5.98786e-07
9.865e-07
9.92599e-07
1.01177e-06
6.13062e-07
6.08373e-07
6.39542e-07
6.37948e-07
9.92269e-07
1.01244e-06
6.09587e-07
6.07329e-07
6.40865e-07
6.4092e-07
6.11461e-07
6.37242e-07
6.40413e-07
9.90908e-07
1.01282e-06
6.108e-07
6.40879e-07
6.38724e-07
1.01006e-06
1.01959e-06
1.04255e-06
6.48653e-07
6.51505e-07
6.90025e-07
6.93415e-07
1.02111e-06
1.04145e-06
6.50498e-07
6.51949e-07
6.89839e-07
6.92098e-07
6.50116e-07
6.94234e-07
6.89369e-07
1.02179e-06
1.04489e-06
6.48336e-07
6.91368e-07
6.87888e-07
1.04278e-06
1.05006e-06
1.0678e-06
7.04414e-07
7.0311e-07
7.33967e-07
7.27424e-07
1.04733e-06
1.0647e-06
7.03586e-07
7.05751e-07
7.33155e-07
7.34328e-07
7.03733e-07
7.26567e-07
7.35756e-07
1.05188e-06
1.06637e-06
7.02724e-07
7.32989e-07
7.37192e-07
1.0684e-06
1.07529e-06
1.10196e-06
7.42071e-07
7.38821e-07
7.79128e-07
7.87385e-07
1.07419e-06
1.1086e-06
7.41186e-07
7.41579e-07
7.77603e-07
7.75276e-07
7.43703e-07
7.87204e-07
7.77551e-07
1.07269e-06
1.10015e-06
7.45327e-07
7.74624e-07
7.76946e-07
1.10149e-06
1.11059e-06
1.12916e-06
7.95068e-07
8.02072e-07
8.30029e-07
8.3065e-07
1.1165e-06
1.12923e-06
7.93442e-07
7.91522e-07
8.29987e-07
8.32114e-07
7.93098e-07
8.29884e-07
8.31483e-07
1.11029e-06
1.13221e-06
7.91809e-07
8.32086e-07
8.30476e-07
1.13066e-06
1.13401e-06
1.14553e-06
8.36585e-07
8.3663e-07
8.54401e-07
8.53095e-07
1.13355e-06
1.14446e-06
8.3715e-07
8.4028e-07
8.54573e-07
8.57448e-07
8.3925e-07
8.52724e-07
8.56183e-07
1.13711e-06
1.14728e-06
8.38502e-07
8.57192e-07
8.55419e-07
1.14586e-06
1.15193e-06
1.1827e-06
8.63637e-07
8.61003e-07
9.04779e-07
9.00727e-07
1.15087e-06
1.18009e-06
8.63091e-07
8.64805e-07
9.03159e-07
9.01158e-07
8.63484e-07
9.00544e-07
8.99903e-07
1.15298e-06
1.18004e-06
8.62705e-07
9.0006e-07
9.00062e-07
1.17965e-06
1.191e-06
1.20406e-06
9.16339e-07
9.15064e-07
9.35777e-07
9.39877e-07
1.18894e-06
1.20581e-06
9.15051e-07
9.13845e-07
9.35837e-07
9.3762e-07
9.13493e-07
9.37147e-07
9.39182e-07
1.18944e-06
1.20535e-06
9.1405e-07
9.38904e-07
9.38285e-07
1.2058e-06
1.20867e-06
1.22696e-06
9.42443e-07
9.44496e-07
9.7008e-07
9.66522e-07
1.20998e-06
1.22329e-06
9.43854e-07
9.45037e-07
9.70641e-07
9.66556e-07
9.45138e-07
9.68298e-07
9.66288e-07
1.20958e-06
1.22348e-06
9.44025e-07
9.64227e-07
9.66538e-07
1.22366e-06
1.23282e-06
1.24254e-06
9.77191e-07
9.7678e-07
9.92963e-07
9.96052e-07
1.23089e-06
1.24775e-06
9.76112e-07
9.73175e-07
9.9126e-07
9.97889e-07
9.7488e-07
9.97696e-07
9.98662e-07
1.22947e-06
1.24625e-06
9.75105e-07
9.99717e-07
9.97389e-07
1.24758e-06
1.2477e-06
1.27349e-06
1.00093e-06
1.00108e-06
1.03152e-06
1.02835e-06
1.2516e-06
1.26737e-06
1.00013e-06
1.00628e-06
1.03204e-06
1.02482e-06
1.00509e-06
1.02584e-06
1.02534e-06
1.25259e-06
1.26796e-06
1.00395e-06
1.02264e-06
1.02581e-06
1.26768e-06
1.27976e-06
1.2875e-06
1.03847e-06
1.03779e-06
1.04988e-06
1.05219e-06
1.27544e-06
1.29059e-06
1.03873e-06
1.03141e-06
1.05032e-06
1.05511e-06
1.03305e-06
1.05412e-06
1.05358e-06
1.27268e-06
1.28965e-06
1.03361e-06
1.05557e-06
1.05347e-06
1.28982e-06
1.29104e-06
1.30801e-06
1.05479e-06
1.05597e-06
1.07766e-06
1.07684e-06
1.2942e-06
1.30665e-06
1.05547e-06
1.06071e-06
1.07725e-06
1.07135e-06
1.0585e-06
1.07679e-06
1.07315e-06
1.29558e-06
1.30397e-06
1.05814e-06
1.07147e-06
1.07211e-06
1.30361e-06
1.31415e-06
1.32389e-06
1.08376e-06
1.0841e-06
1.09526e-06
1.09572e-06
1.31273e-06
1.32365e-06
1.08356e-06
1.07702e-06
1.09811e-06
1.10179e-06
1.07972e-06
1.09627e-06
1.09984e-06
1.30782e-06
1.32804e-06
1.07877e-06
1.10138e-06
1.10052e-06
1.32742e-06
1.32779e-06
1.34199e-06
1.10052e-06
1.09967e-06
1.12054e-06
1.12118e-06
1.32751e-06
1.34333e-06
1.10305e-06
1.10745e-06
1.11927e-06
1.11625e-06
1.10544e-06
1.12217e-06
1.11886e-06
1.33428e-06
1.34108e-06
1.10627e-06
1.11803e-06
1.11833e-06
1.34122e-06
1.34723e-06
1.35668e-06
1.12543e-06
1.12789e-06
1.13568e-06
1.13603e-06
1.34895e-06
1.3537e-06
1.12434e-06
1.12033e-06
1.13906e-06
1.13896e-06
1.12228e-06
1.13226e-06
1.13491e-06
1.34403e-06
1.3565e-06
1.12187e-06
1.13673e-06
1.13699e-06
1.35529e-06
1.36072e-06
1.37102e-06
1.14038e-06
1.138e-06
1.15537e-06
1.15282e-06
1.356e-06
1.36822e-06
1.14394e-06
1.1438e-06
1.15332e-06
1.15117e-06
1.14081e-06
1.15415e-06
1.15552e-06
1.36175e-06
1.36724e-06
1.14299e-06
1.15094e-06
1.15421e-06
1.37204e-06
1.37437e-06
1.37939e-06
1.15858e-06
1.15933e-06
1.16745e-06
1.17101e-06
1.37507e-06
1.38538e-06
1.15503e-06
1.15385e-06
1.16532e-06
1.16987e-06
1.1587e-06
1.17142e-06
1.17183e-06
1.37008e-06
1.38345e-06
1.15634e-06
1.17051e-06
1.16988e-06
1.38374e-06
1.38357e-06
1.39592e-06
1.17168e-06
1.17378e-06
1.1842e-06
1.18378e-06
1.38799e-06
1.39251e-06
1.17108e-06
1.17601e-06
1.18539e-06
1.18578e-06
1.17722e-06
1.17975e-06
1.18587e-06
1.38958e-06
1.39775e-06
1.17649e-06
1.18577e-06
1.18767e-06
1.39815e-06
1.39989e-06
1.40745e-06
1.1877e-06
1.18708e-06
1.19845e-06
1.19546e-06
1.39613e-06
1.40405e-06
1.18869e-06
1.18727e-06
1.19821e-06
1.19628e-06
1.18678e-06
1.195e-06
1.1945e-06
1.39968e-06
1.40363e-06
1.18857e-06
1.19442e-06
1.19487e-06
1.40253e-06
1.41087e-06
1.41298e-06
1.20117e-06
1.19743e-06
1.20559e-06
1.20248e-06
1.40731e-06
1.41018e-06
1.20054e-06
1.20018e-06
1.20368e-06
1.20592e-06
1.19949e-06
1.2035e-06
1.2092e-06
1.40817e-06
1.41495e-06
1.19936e-06
1.20719e-06
1.20913e-06
1.41741e-06
1.41545e-06
1.42558e-06
1.20785e-06
1.20561e-06
1.22038e-06
1.21971e-06
1.41324e-06
1.42638e-06
1.20526e-06
1.20739e-06
1.21684e-06
1.21785e-06
1.21007e-06
1.21809e-06
1.21712e-06
1.41729e-06
1.42539e-06
1.21012e-06
1.21846e-06
1.21742e-06
1.42372e-06
1.4301e-06
1.42746e-06
1.22356e-06
1.22301e-06
1.22435e-06
1.22413e-06
1.43127e-06
1.42986e-06
1.22097e-06
1.22136e-06
1.2235e-06
1.22341e-06
1.22096e-06
1.22549e-06
1.22457e-06
1.42977e-06
1.42797e-06
1.22127e-06
1.22415e-06
1.22481e-06
1.42969e-06
1.42822e-06
1.42629e-06
1.22253e-06
1.22249e-06
1.22183e-06
1.22186e-06
1.43066e-06
1.42754e-06
1.22224e-06
1.22229e-06
1.22204e-06
1.22261e-06
1.22347e-06
1.22349e-06
1.22184e-06
1.42879e-06
1.42722e-06
1.22367e-06
1.22266e-06
1.22187e-06
1.42541e-06
1.43228e-06
1.46566e-06
1.22517e-06
1.22508e-06
1.2495e-06
1.24936e-06
1.43297e-06
1.46523e-06
1.22586e-06
1.22699e-06
1.25036e-06
1.25174e-06
1.22403e-06
1.2495e-06
1.2478e-06
1.4333e-06
1.46711e-06
1.22391e-06
1.2505e-06
1.24746e-06
1.46277e-06
1.47211e-06
1.46744e-06
1.25486e-06
1.25511e-06
1.25577e-06
1.25665e-06
1.47197e-06
1.46816e-06
1.25556e-06
1.25683e-06
1.25626e-06
1.25718e-06
1.25416e-06
1.25674e-06
1.25683e-06
1.47355e-06
1.46838e-06
1.25388e-06
1.25698e-06
1.25664e-06
1.46901e-06
1.46652e-06
1.41155e-06
1.24987e-06
1.25109e-06
1.21648e-06
1.21756e-06
1.46728e-06
1.41212e-06
1.25026e-06
1.25085e-06
1.21667e-06
1.21678e-06
1.25192e-06
1.21739e-06
1.21804e-06
1.46733e-06
1.41126e-06
1.25176e-06
1.21698e-06
1.21793e-06
1.4135e-06
1.40752e-06
1.36478e-06
1.20272e-06
1.20366e-06
1.17497e-06
1.17547e-06
1.40801e-06
1.36463e-06
1.20284e-06
1.20284e-06
1.17498e-06
1.17496e-06
1.20383e-06
1.17489e-06
1.17473e-06
1.40715e-06
1.36404e-06
1.20374e-06
1.17467e-06
1.17459e-06
1.36429e-06
1.36548e-06
1.39281e-06
1.17246e-06
1.17288e-06
1.18542e-06
1.18564e-06
1.36531e-06
1.39256e-06
1.17246e-06
1.17246e-06
1.1855e-06
1.18563e-06
1.17203e-06
1.18517e-06
1.18467e-06
1.36474e-06
1.39246e-06
1.17187e-06
1.18501e-06
1.18437e-06
1.39139e-06
1.40788e-06
1.4754e-06
1.20031e-06
1.20053e-06
1.25063e-06
1.25089e-06
1.40768e-06
1.47552e-06
1.20044e-06
1.20062e-06
1.25076e-06
1.25107e-06
1.19967e-06
1.25082e-06
1.25063e-06
1.40765e-06
1.47563e-06
1.19934e-06
1.25069e-06
1.25033e-06
1.47496e-06
1.49035e-06
1.54953e-06
1.26626e-06
1.26653e-06
1.31062e-06
1.31086e-06
1.49052e-06
1.54975e-06
1.26636e-06
1.26668e-06
1.31064e-06
1.31091e-06
1.26643e-06
1.31087e-06
1.31101e-06
1.49062e-06
1.54981e-06
1.26617e-06
1.31077e-06
1.31083e-06
1.54985e-06
1.56301e-06
1.59477e-06
1.32359e-06
1.32379e-06
1.34699e-06
1.34708e-06
1.56321e-06
1.59485e-06
1.32358e-06
1.32381e-06
1.34692e-06
1.34704e-06
1.32398e-06
1.34707e-06
1.34731e-06
1.56326e-06
1.59488e-06
1.32382e-06
1.34704e-06
1.3472e-06
1.59524e-06
1.59821e-06
1.55292e-06
1.34831e-06
1.34837e-06
1.32576e-06
1.32569e-06
1.59827e-06
1.55281e-06
1.34823e-06
1.34832e-06
1.32561e-06
1.32561e-06
1.3486e-06
1.32564e-06
1.32584e-06
1.59829e-06
1.55284e-06
1.3485e-06
1.32569e-06
1.32581e-06
1.5532e-06
1.54555e-06
1.43081e-06
1.30668e-06
1.3066e-06
1.23511e-06
1.23502e-06
1.54544e-06
1.43068e-06
1.30653e-06
1.30653e-06
1.23495e-06
1.235e-06
1.30673e-06
1.23497e-06
1.2351e-06
1.54546e-06
1.43076e-06
1.3067e-06
1.23504e-06
1.23508e-06
1.43092e-06
1.42265e-06
1.34072e-06
1.21233e-06
1.21226e-06
1.15859e-06
1.15855e-06
1.42253e-06
1.34062e-06
1.21219e-06
1.21227e-06
1.15845e-06
1.15859e-06
1.21234e-06
1.15849e-06
1.15861e-06
1.42261e-06
1.34074e-06
1.21231e-06
1.15854e-06
1.15855e-06
1.34078e-06
1.33818e-06
1.3173e-06
1.14651e-06
1.14648e-06
1.12744e-06
1.12744e-06
1.33809e-06
1.31724e-06
1.14638e-06
1.14652e-06
1.12732e-06
1.12748e-06
1.14654e-06
1.12735e-06
1.12748e-06
1.3382e-06
1.31734e-06
1.14647e-06
1.12739e-06
1.12739e-06
1.31735e-06
1.31993e-06
1.33989e-06
1.12595e-06
1.12596e-06
1.13317e-06
1.13321e-06
1.31987e-06
1.33984e-06
1.12583e-06
1.12599e-06
1.13306e-06
1.13322e-06
1.126e-06
1.13309e-06
1.13323e-06
1.31997e-06
1.33993e-06
1.12589e-06
1.13313e-06
1.13312e-06
1.33995e-06
1.34783e-06
1.37259e-06
1.13912e-06
1.13916e-06
1.15356e-06
1.1536e-06
1.34779e-06
1.37255e-06
1.13902e-06
1.13917e-06
1.15347e-06
1.15362e-06
1.13918e-06
1.15348e-06
1.15363e-06
1.34787e-06
1.37264e-06
1.13907e-06
1.15354e-06
1.15353e-06
1.37266e-06
1.3792e-06
1.39464e-06
1.15726e-06
1.1573e-06
1.16449e-06
1.16453e-06
1.37916e-06
1.39459e-06
1.15717e-06
1.15732e-06
1.16441e-06
1.16455e-06
1.15733e-06
1.16441e-06
1.16457e-06
1.37925e-06
1.39467e-06
1.15724e-06
1.16448e-06
1.16448e-06
1.39471e-06
1.39912e-06
1.40577e-06
1.16584e-06
1.16588e-06
1.16776e-06
1.1678e-06
1.39908e-06
1.40572e-06
1.16576e-06
1.1659e-06
1.16768e-06
1.16783e-06
1.16592e-06
1.16768e-06
1.16784e-06
1.39916e-06
1.40581e-06
1.16583e-06
1.16775e-06
1.16776e-06
1.40585e-06
1.40871e-06
1.41043e-06
1.16804e-06
1.16808e-06
1.16827e-06
1.16831e-06
1.40866e-06
1.41038e-06
1.16796e-06
1.16811e-06
1.16819e-06
1.16834e-06
1.16812e-06
1.16819e-06
1.16835e-06
1.40874e-06
1.41047e-06
1.16803e-06
1.16826e-06
1.16827e-06
1.4105e-06
1.41262e-06
1.41218e-06
1.16827e-06
1.16831e-06
1.16813e-06
1.16816e-06
1.41258e-06
1.41213e-06
1.16819e-06
1.16834e-06
1.16804e-06
1.16819e-06
1.16835e-06
1.16804e-06
1.16821e-06
1.41266e-06
1.41222e-06
1.16827e-06
1.16811e-06
1.16812e-06
1.41226e-06
1.41409e-06
1.4125e-06
1.16808e-06
1.16812e-06
1.16785e-06
1.16789e-06
1.41405e-06
1.41245e-06
1.168e-06
1.16815e-06
1.16777e-06
1.16792e-06
1.16817e-06
1.16777e-06
1.16793e-06
1.41413e-06
1.41253e-06
1.16808e-06
1.16784e-06
1.16785e-06
1.41257e-06
1.41434e-06
1.41236e-06
1.16782e-06
1.16786e-06
1.16764e-06
1.16768e-06
1.41429e-06
1.41231e-06
1.16773e-06
1.16789e-06
1.16756e-06
1.16771e-06
1.1679e-06
1.16756e-06
1.16772e-06
1.41437e-06
1.4124e-06
1.16781e-06
1.16763e-06
1.16763e-06
1.41244e-06
1.41416e-06
1.41263e-06
1.16765e-06
1.16769e-06
1.16768e-06
1.16772e-06
1.41411e-06
1.41258e-06
1.16757e-06
1.16772e-06
1.1676e-06
1.16775e-06
1.16774e-06
1.1676e-06
1.16777e-06
1.41419e-06
1.41266e-06
1.16765e-06
1.16767e-06
1.16768e-06
1.4127e-06
1.4145e-06
1.4126e-06
1.16772e-06
1.16776e-06
1.16768e-06
1.16771e-06
1.41446e-06
1.41255e-06
1.16764e-06
1.16779e-06
1.16759e-06
1.16774e-06
1.1678e-06
1.16759e-06
1.16776e-06
1.41453e-06
1.41264e-06
1.16771e-06
1.16766e-06
1.16767e-06
1.41268e-06
1.41439e-06
1.4124e-06
1.16768e-06
1.16772e-06
1.16762e-06
1.16766e-06
1.41434e-06
1.41235e-06
1.1676e-06
1.16775e-06
1.16754e-06
1.16769e-06
1.16777e-06
1.16754e-06
1.1677e-06
1.41442e-06
1.41244e-06
1.16768e-06
1.16761e-06
1.16761e-06
1.41248e-06
1.41426e-06
1.41267e-06
1.16767e-06
1.16771e-06
1.16765e-06
1.16769e-06
1.41422e-06
1.41262e-06
1.16759e-06
1.16774e-06
1.16757e-06
1.16772e-06
1.16776e-06
1.16757e-06
1.16773e-06
1.4143e-06
1.41271e-06
1.16767e-06
1.16764e-06
1.16764e-06
1.41275e-06
1.41449e-06
1.41243e-06
1.16771e-06
1.16775e-06
1.16761e-06
1.16765e-06
1.41444e-06
1.41237e-06
1.16763e-06
1.16778e-06
1.16753e-06
1.16768e-06
1.16779e-06
1.16753e-06
1.16769e-06
1.41451e-06
1.41246e-06
1.1677e-06
1.1676e-06
1.1676e-06
1.4125e-06
1.41423e-06
1.41258e-06
1.16769e-06
1.16773e-06
1.16761e-06
1.16765e-06
1.41417e-06
1.41254e-06
1.16761e-06
1.16776e-06
1.16753e-06
1.16768e-06
1.16777e-06
1.16753e-06
1.16769e-06
1.41425e-06
1.41262e-06
1.16768e-06
1.1676e-06
1.1676e-06
1.41266e-06
1.41443e-06
1.41255e-06
1.16774e-06
1.16778e-06
1.16759e-06
1.16763e-06
1.41439e-06
1.41249e-06
1.16766e-06
1.16781e-06
1.16751e-06
1.16766e-06
1.16782e-06
1.16751e-06
1.16767e-06
1.41447e-06
1.41258e-06
1.16773e-06
1.16758e-06
1.16758e-06
1.41261e-06
1.41432e-06
1.41231e-06
1.16776e-06
1.16779e-06
1.16721e-06
1.16724e-06
1.41427e-06
1.41226e-06
1.16767e-06
1.16783e-06
1.16712e-06
1.16727e-06
1.16783e-06
1.16712e-06
1.16728e-06
1.41435e-06
1.41236e-06
1.16774e-06
1.16718e-06
1.16719e-06
1.41238e-06
1.41404e-06
1.39371e-06
1.16748e-06
1.16752e-06
1.14705e-06
1.14708e-06
1.414e-06
1.39369e-06
1.16739e-06
1.16755e-06
1.14703e-06
1.14704e-06
1.16756e-06
1.14708e-06
1.14711e-06
1.41408e-06
1.39372e-06
1.16746e-06
1.14707e-06
1.14707e-06
1.39375e-06
1.37255e-06
1.11213e-06
1.11216e-06
1.37255e-06
1.11213e-06
1.11212e-06
6.51227e-07
6.51198e-07
6.51239e-07
1.11218e-06
1.37256e-06
1.11218e-06
8.88893e-09
2.68169e-09
5.46569e-09
5.45518e-09
1.5523e-09
4.4909e-09
1.07334e-08
2.96911e-09
1.71193e-09
3.73953e-09
3.18038e-09
2.6214e-09
5.27153e-09
4.63536e-09
3.75709e-09
7.4702e-09
1.64232e-07
5.90905e-09
2.60418e-07
1.5737e-06
3.08293e-06
7.28948e-09
1.63424e-07
5.87162e-09
2.59181e-07
3.55916e-09
3.53689e-09
3.71052e-09
3.54997e-09
3.54068e-09
3.51682e-09
3.69033e-09
1.52585e-09
8.488e-08
2.24397e-09
4.71948e-09
1.54616e-09
6.33399e-08
2.21367e-09
1.63657e-06
3.2074e-06
1.54757e-09
2.25892e-09
7.37628e-08
3.40016e-09
1.61831e-09
2.24428e-09
5.30906e-08
2.16026e-07
2.15829e-07
4.87856e-09
1.85562e-07
1.85222e-07
1.66865e-08
4.66851e-07
1.19226e-08
6.78658e-07
7.01777e-06
1.00875e-05
1.69713e-08
4.64511e-07
1.17932e-08
6.79795e-07
3.53104e-09
3.50903e-09
3.67557e-09