/*--------------------------------*- C++ -*----------------------------------*\
| =========                 |                                                 |
| \\      /  F ield         | OpenFOAM: The Open Source CFD Toolbox           |
|  \\    /   O peration     | Version:  v1906                                 |
|   \\  /    A nd           | Web:      www.OpenFOAM.com                      |
|    \\/     M anipulation  |                                                 |
\*---------------------------------------------------------------------------*/
FoamFile
{
    version     2.0;
    format      ascii;
    class       volScalarField;
    location    "312.5";
    object      k;
}
// * * * * * * * * * * * * * * * * * * * * * * * * * * * * * * * * * * * * * //

dimensions      [0 2 -2 0 0 0 0];


internalField   nonuniform List<scalar> 
171728
(
5.22688e-07
3.41449e-07
2.78339e-07
3.55285e-07
5.17062e-07
3.25529e-07
2.64729e-07
3.37338e-07
5.19138e-07
3.10349e-07
2.55616e-07
3.22449e-07
5.21708e-07
2.9702e-07
2.48462e-07
3.10895e-07
5.24603e-07
2.84741e-07
2.42195e-07
3.02987e-07
5.27858e-07
2.74908e-07
2.35537e-07
2.98061e-07
5.31828e-07
2.64182e-07
2.28755e-07
2.96408e-07
5.36557e-07
2.5439e-07
2.23417e-07
2.88711e-07
5.41559e-07
2.48015e-07
2.20157e-07
2.53934e-07
5.47126e-07
2.42514e-07
2.17778e-07
2.34331e-07
5.53013e-07
2.37482e-07
2.17824e-07
2.24214e-07
5.58918e-07
2.33158e-07
2.22471e-07
2.16383e-07
5.66027e-07
2.29216e-07
2.28404e-07
2.10406e-07
5.72486e-07
2.27305e-07
2.39031e-07
2.06767e-07
5.79749e-07
2.27613e-07
2.8587e-07
2.05156e-07
5.87047e-07
2.30511e-07
3.50979e-07
2.06771e-07
5.94195e-07
2.39269e-07
3.94476e-07
2.1394e-07
6.02234e-07
2.57001e-07
4.07239e-07
2.33793e-07
6.10462e-07
2.82952e-07
3.87014e-07
2.74325e-07
6.18932e-07
3.29192e-07
4.08554e-07
3.35798e-07
6.28362e-07
4.14932e-07
4.77274e-07
4.7911e-07
6.37896e-07
5.28146e-07
5.33239e-07
6.91108e-07
6.48728e-07
6.78408e-07
7.02561e-07
1.10952e-06
6.61852e-07
9.22376e-07
9.19974e-07
1.7403e-06
6.74865e-07
1.21613e-06
1.17785e-06
2.66829e-06
6.92296e-07
1.74247e-06
1.70152e-06
3.95508e-06
7.11437e-07
2.09373e-06
2.10989e-06
5.78132e-06
7.3753e-07
2.84191e-06
2.74994e-06
7.57673e-06
7.70639e-07
3.72821e-06
3.56151e-06
1.01294e-05
8.06331e-07
4.52903e-06
4.40612e-06
1.30288e-05
8.72143e-07
5.39573e-06
5.33866e-06
1.47348e-05
9.10722e-07
6.38393e-06
6.85291e-06
1.77629e-05
1.03666e-06
8.12309e-06
7.82504e-06
1.9904e-05
1.14179e-06
8.80237e-06
9.26615e-06
2.17593e-05
1.31073e-06
1.0962e-05
1.1428e-05
2.3671e-05
1.39182e-06
1.19002e-05
1.18926e-05
2.52402e-05
1.775e-06
1.44528e-05
1.40994e-05
2.69023e-05
1.93125e-06
1.4889e-05
1.60663e-05
2.79399e-05
2.33334e-06
1.80651e-05
1.74447e-05
3.00818e-05
2.74479e-06
2.03027e-05
1.92098e-05
3.06392e-05
3.2213e-06
2.05327e-05
2.09063e-05
3.16663e-05
3.72969e-06
2.30701e-05
2.30402e-05
3.34706e-05
4.66542e-06
2.4173e-05
2.46313e-05
3.42222e-05
4.99708e-06
2.69769e-05
2.64866e-05
3.5466e-05
6.36784e-06
2.76291e-05
2.83208e-05
3.65388e-05
6.72254e-06
3.00104e-05
2.9104e-05
3.7526e-05
8.53099e-06
3.22739e-05
3.21412e-05
3.91532e-05
9.57025e-06
3.25569e-05
3.29756e-05
3.9458e-05
9.97464e-06
3.42184e-05
3.4076e-05
4.06486e-05
1.2311e-05
3.60797e-05
3.61318e-05
4.19919e-05
1.33445e-05
3.7059e-05
3.69429e-05
4.25432e-05
1.46844e-05
3.84594e-05
3.84597e-05
4.35935e-05
1.59406e-05
3.93918e-05
3.93322e-05
4.43497e-05
1.81158e-05
4.08111e-05
4.09266e-05
4.54217e-05
1.91413e-05
4.18215e-05
4.16106e-05
4.58396e-05
2.09037e-05
4.26395e-05
4.28939e-05
4.69822e-05
2.23579e-05
4.40275e-05
4.38894e-05
4.7625e-05
2.39058e-05
4.4605e-05
4.4669e-05
4.81559e-05
2.55529e-05
4.53622e-05
4.54275e-05
4.90641e-05
2.65019e-05
4.66836e-05
4.63065e-05
4.947e-05
2.80016e-05
4.70116e-05
4.74502e-05
5.04186e-05
2.93172e-05
4.78672e-05
4.76825e-05
5.04452e-05
3.06128e-05
4.84599e-05
4.86168e-05
5.14487e-05
3.14099e-05
4.9217e-05
4.9302e-05
5.17114e-05
3.30872e-05
5.01441e-05
5.00467e-05
5.24807e-05
3.36188e-05
5.00203e-05
4.99057e-05
5.20333e-05
3.44876e-05
5.13564e-05
5.14308e-05
5.36601e-05
3.72976e-05
5.28648e-05
5.28992e-05
5.50654e-05
3.76841e-05
5.19997e-05
5.19802e-05
5.36934e-05
3.53408e-05
4.88369e-05
4.88214e-05
5.0587e-05
3.38805e-05
4.82784e-05
4.82646e-05
5.04495e-05
3.64136e-05
5.19518e-05
5.19458e-05
5.41629e-05
4.1813e-05
5.57775e-05
5.57727e-05
5.76477e-05
4.5571e-05
5.88022e-05
5.87989e-05
6.05571e-05
4.68573e-05
5.93923e-05
5.93906e-05
6.07286e-05
4.38258e-05
5.45719e-05
5.45731e-05
5.56709e-05
3.77212e-05
4.95673e-05
4.95684e-05
5.10413e-05
3.42031e-05
4.76112e-05
4.76117e-05
4.94299e-05
3.38341e-05
4.82335e-05
4.82332e-05
5.04463e-05
3.75511e-05
5.04341e-05
5.0434e-05
5.23884e-05
4.00368e-05
5.17052e-05
5.17056e-05
5.3595e-05
4.10896e-05
5.21928e-05
5.21932e-05
5.41197e-05
4.14888e-05
5.23485e-05
5.23489e-05
5.43106e-05
4.1638e-05
5.23894e-05
5.23898e-05
5.43748e-05
4.16706e-05
5.23893e-05
5.23897e-05
5.43909e-05
4.16649e-05
5.23739e-05
5.23742e-05
5.43788e-05
4.16692e-05
5.23777e-05
5.23779e-05
5.43801e-05
4.16703e-05
5.23787e-05
5.2379e-05
5.4393e-05
4.16671e-05
5.23742e-05
5.23745e-05
5.43739e-05
4.16681e-05
5.23774e-05
5.23776e-05
5.43898e-05
4.16678e-05
5.23761e-05
5.23764e-05
5.43803e-05
4.16681e-05
5.23776e-05
5.23779e-05
5.43814e-05
4.16683e-05
5.23788e-05
5.23791e-05
5.43872e-05
4.16579e-05
5.23627e-05
5.23627e-05
5.43739e-05
4.12615e-05
5.12685e-05
5.12672e-05
5.40651e-05
3.70937e-07
3.59863e-07
3.33479e-07
3.5187e-07
3.42733e-07
3.56407e-07
5.31782e-07
5.30132e-07
5.32717e-07
5.40536e-07
3.4134e-07
3.70707e-07
3.66644e-07
3.25275e-07
3.43921e-07
3.58063e-07
3.69923e-07
3.52743e-07
3.46251e-07
3.40628e-07
3.33588e-07
3.21618e-07
3.50919e-07
3.35283e-07
3.39164e-07
3.51953e-07
3.26628e-07
3.38584e-07
4.06713e-07
3.29493e-07
4.04634e-07
3.65868e-07
3.48127e-07
3.44134e-07
2.67413e-07
3.30509e-07
3.40337e-07
3.51455e-07
3.35187e-07
3.29496e-07
3.15888e-07
3.17917e-07
3.02626e-07
3.34009e-07
3.18422e-07
3.22552e-07
3.34255e-07
3.11016e-07
3.21753e-07
4.04624e-07
3.1409e-07
4.0543e-07
3.46924e-07
3.30193e-07
3.25887e-07
2.57767e-07
3.13176e-07
3.25113e-07
3.33971e-07
3.18752e-07
3.1415e-07
2.98937e-07
3.03717e-07
2.88849e-07
3.16292e-07
3.02686e-07
3.07381e-07
3.17792e-07
2.96932e-07
3.06532e-07
4.06158e-07
3.00138e-07
4.08864e-07
3.29084e-07
3.14043e-07
3.09435e-07
2.50084e-07
2.98693e-07
3.13003e-07
3.17573e-07
3.03367e-07
3.00427e-07
2.85703e-07
2.90859e-07
2.76751e-07
3.00236e-07
2.88412e-07
2.93673e-07
3.0305e-07
2.8445e-07
2.92561e-07
4.10087e-07
2.87653e-07
4.13203e-07
3.13019e-07
2.9939e-07
2.9517e-07
2.43839e-07
2.85392e-07
3.04765e-07
3.02263e-07
2.8944e-07
2.87755e-07
2.73924e-07
2.78799e-07
2.66093e-07
2.86103e-07
2.75631e-07
2.81394e-07
2.89224e-07
2.72607e-07
2.79903e-07
4.14153e-07
2.77369e-07
4.18201e-07
2.98432e-07
2.85829e-07
2.82054e-07
2.37156e-07
2.72168e-07
2.99124e-07
2.88441e-07
2.76986e-07
2.75818e-07
2.63608e-07
2.675e-07
2.56522e-07
2.7372e-07
2.64366e-07
2.69901e-07
2.77005e-07
2.62248e-07
2.68934e-07
4.22548e-07
2.66936e-07
4.35706e-07
2.84922e-07
2.7309e-07
2.69415e-07
2.30471e-07
2.62898e-07
2.97604e-07
2.76113e-07
2.66173e-07
2.6516e-07
2.54272e-07
2.5857e-07
2.47898e-07
2.62619e-07
2.54016e-07
2.59806e-07
2.66525e-07
2.52923e-07
2.59965e-07
4.36552e-07
2.5657e-07
4.145e-07
2.72234e-07
2.61464e-07
2.61095e-07
2.24382e-07
2.56026e-07
2.919e-07
2.65425e-07
2.56548e-07
2.56484e-07
2.45957e-07
2.50525e-07
2.40719e-07
2.52407e-07
2.4472e-07
2.50846e-07
2.57964e-07
2.45205e-07
2.52554e-07
3.85241e-07
2.494e-07
2.99527e-07
2.60689e-07
2.50841e-07
2.54247e-07
2.20966e-07
2.48395e-07
2.56806e-07
2.55893e-07
2.47841e-07
2.48603e-07
2.39121e-07
2.43414e-07
2.34768e-07
2.43677e-07
2.36596e-07
2.43501e-07
2.51003e-07
2.3904e-07
2.46457e-07
2.73822e-07
2.43824e-07
2.16713e-07
2.50164e-07
2.40929e-07
2.46408e-07
2.18109e-07
2.41008e-07
2.35137e-07
2.47267e-07
2.39566e-07
2.41681e-07
2.33477e-07
2.37143e-07
2.2979e-07
2.35983e-07
2.29726e-07
2.37554e-07
2.44882e-07
2.33539e-07
2.40199e-07
2.0446e-07
2.38749e-07
1.82968e-07
2.40312e-07
2.31615e-07
2.3945e-07
2.1771e-07
2.34787e-07
2.2458e-07
2.39047e-07
2.32001e-07
2.35871e-07
2.28626e-07
2.3237e-07
2.2596e-07
2.29262e-07
2.23611e-07
2.32466e-07
2.38657e-07
2.29233e-07
2.34824e-07
1.79684e-07
2.34228e-07
1.77142e-07
2.31036e-07
2.24322e-07
2.33208e-07
2.20544e-07
2.29554e-07
2.16599e-07
2.31619e-07
2.25533e-07
2.31386e-07
2.2514e-07
2.28771e-07
2.23363e-07
2.23286e-07
2.1847e-07
2.28291e-07
2.33663e-07
2.26257e-07
2.31164e-07
1.77227e-07
2.30088e-07
1.78645e-07
2.24093e-07
2.20233e-07
2.28665e-07
2.27454e-07
2.26542e-07
2.10358e-07
2.25313e-07
2.20002e-07
2.28072e-07
2.22809e-07
2.26574e-07
2.21358e-07
2.18341e-07
2.14271e-07
2.25633e-07
2.30614e-07
2.23938e-07
2.2957e-07
1.79168e-07
2.27565e-07
1.8162e-07
2.20169e-07
2.19298e-07
2.25968e-07
2.33383e-07
2.25541e-07
2.06517e-07
2.20038e-07
2.16407e-07
2.26198e-07
2.21051e-07
2.26009e-07
2.21395e-07
2.14362e-07
2.11372e-07
2.23882e-07
2.29539e-07
2.24813e-07
2.30276e-07
1.82648e-07
2.27283e-07
1.86283e-07
2.2001e-07
2.26769e-07
2.25504e-07
2.70657e-07
2.25876e-07
2.04421e-07
2.16833e-07
2.1629e-07
2.26332e-07
2.21895e-07
2.28957e-07
2.2477e-07
2.118e-07
2.11172e-07
2.25444e-07
2.30793e-07
2.28174e-07
2.34234e-07
1.87856e-07
2.29581e-07
1.93329e-07
2.29859e-07
2.44296e-07
2.26394e-07
3.35405e-07
2.28716e-07
2.05124e-07
2.17824e-07
2.20686e-07
2.30595e-07
2.26164e-07
2.36923e-07
2.33401e-07
2.12554e-07
2.16364e-07
2.29612e-07
2.35714e-07
2.36006e-07
2.43203e-07
1.9637e-07
2.36661e-07
2.06111e-07
2.48468e-07
2.59907e-07
2.30424e-07
3.87319e-07
2.36129e-07
2.10948e-07
2.24209e-07
2.3515e-07
2.4007e-07
2.36555e-07
2.52412e-07
2.48482e-07
2.19849e-07
2.29066e-07
2.39799e-07
2.46094e-07
2.5242e-07
2.57529e-07
2.10058e-07
2.50287e-07
2.27586e-07
2.63682e-07
2.73491e-07
2.38619e-07
4.06278e-07
2.51724e-07
2.28076e-07
2.42432e-07
2.64913e-07
2.5798e-07
2.55505e-07
2.79144e-07
2.74696e-07
2.36868e-07
2.60354e-07
2.57936e-07
2.63066e-07
2.78734e-07
2.835e-07
2.33016e-07
2.74442e-07
2.6042e-07
2.7912e-07
2.94156e-07
2.5515e-07
3.89714e-07
2.77465e-07
2.59006e-07
2.78156e-07
3.2314e-07
2.8871e-07
2.83607e-07
3.20796e-07
3.22252e-07
2.69522e-07
3.27344e-07
2.88246e-07
2.9208e-07
3.20284e-07
3.25552e-07
2.72346e-07
3.19452e-07
3.05572e-07
3.03143e-07
3.41058e-07
2.8829e-07
3.95911e-07
3.1784e-07
3.19217e-07
3.43153e-07
4.42428e-07
3.38385e-07
3.32379e-07
3.85398e-07
3.99053e-07
3.47276e-07
4.42166e-07
3.37497e-07
3.38893e-07
3.86325e-07
3.91498e-07
3.19381e-07
3.93839e-07
3.82017e-07
3.63918e-07
4.47904e-07
3.29929e-07
4.4892e-07
3.88413e-07
4.35626e-07
4.68872e-07
6.85051e-07
4.02968e-07
4.21087e-07
5.12196e-07
4.86699e-07
4.93916e-07
6.07335e-07
4.02936e-07
4.20587e-07
5.08879e-07
4.85834e-07
4.06738e-07
4.80936e-07
4.82509e-07
4.86418e-07
6.46605e-07
4.13205e-07
5.19762e-07
4.85911e-07
6.35999e-07
7.69234e-07
8.93536e-07
5.37544e-07
5.34222e-07
6.32108e-07
6.43283e-07
6.6816e-07
1.04921e-06
5.347e-07
5.18875e-07
6.28375e-07
6.51678e-07
5.19665e-07
6.35817e-07
6.42931e-07
6.77786e-07
1.05855e-06
5.21437e-07
6.67618e-07
6.44176e-07
1.02366e-06
1.00234e-06
1.68731e-06
7.03519e-07
6.83588e-07
8.69862e-07
8.70563e-07
1.10238e-06
1.62491e-06
7.03317e-07
7.03125e-07
8.58353e-07
8.43725e-07
6.88636e-07
8.59539e-07
8.62388e-07
1.16018e-06
1.55561e-06
6.88229e-07
8.41967e-07
8.5803e-07
1.58576e-06
1.75059e-06
2.52143e-06
9.47e-07
9.33934e-07
1.11973e-06
1.15899e-06
1.81212e-06
2.3595e-06
9.33827e-07
9.17052e-07
1.12571e-06
1.18436e-06
9.28927e-07
1.15738e-06
1.1628e-06
1.70418e-06
2.51761e-06
9.20326e-07
1.1377e-06
1.15977e-06
2.44272e-06
2.68164e-06
3.75959e-06
1.18994e-06
1.22367e-06
1.62096e-06
1.58408e-06
2.58787e-06
3.67536e-06
1.18977e-06
1.23096e-06
1.61124e-06
1.55614e-06
1.25886e-06
1.56657e-06
1.53631e-06
2.74287e-06
3.43443e-06
1.26218e-06
1.54463e-06
1.51198e-06
3.71445e-06
4.2469e-06
5.06431e-06
1.71331e-06
1.7498e-06
1.98802e-06
1.98993e-06
3.94738e-06
5.57727e-06
1.70384e-06
1.71603e-06
2.00075e-06
2.02182e-06
1.6467e-06
1.99056e-06
2.06242e-06
3.85608e-06
5.52891e-06
1.6205e-06
1.96003e-06
2.06295e-06
5.30417e-06
5.2586e-06
7.67014e-06
2.15512e-06
2.10721e-06
2.65858e-06
2.77921e-06
5.75701e-06
7.56511e-06
2.164e-06
2.12301e-06
2.65906e-06
2.71608e-06
2.17805e-06
2.75983e-06
2.70746e-06
5.66718e-06
7.32699e-06
2.15546e-06
2.614e-06
2.68562e-06
7.20523e-06
8.12141e-06
9.63214e-06
2.82186e-06
2.85904e-06
3.42509e-06
3.28259e-06
8.17774e-06
9.22379e-06
2.83426e-06
2.86601e-06
3.40341e-06
3.31892e-06
2.9177e-06
3.276e-06
3.22977e-06
7.93311e-06
9.51994e-06
2.90186e-06
3.35252e-06
3.249e-06
9.83657e-06
1.02376e-05
1.18535e-05
3.58816e-06
3.75504e-06
4.10696e-06
4.51138e-06
1.00444e-05
1.32238e-05
3.60092e-06
3.58077e-06
4.0893e-06
4.21658e-06
3.42738e-06
4.49242e-06
4.40451e-06
9.91848e-06
1.22635e-05
3.4737e-06
4.14596e-06
4.30637e-06
1.2226e-05
1.22865e-05
1.51463e-05
4.43344e-06
4.54429e-06
5.39496e-06
4.88052e-06
1.33454e-05
1.32442e-05
4.31701e-06
4.39079e-06
5.38947e-06
5.19938e-06
4.53965e-06
4.83249e-06
5.15327e-06
1.27814e-05
1.44209e-05
4.47613e-06
5.14446e-06
5.12156e-06
1.44507e-05
1.55855e-05
1.64761e-05
5.52955e-06
5.40814e-06
5.90471e-06
6.25067e-06
1.40627e-05
1.77831e-05
5.64482e-06
5.43833e-06
5.9722e-06
6.22253e-06
5.50365e-06
6.22502e-06
6.23545e-06
1.49149e-05
1.71919e-05
5.46443e-06
6.40849e-06
6.20188e-06
1.73085e-05
1.69394e-05
1.9455e-05
6.33974e-06
6.46414e-06
7.83156e-06
7.74033e-06
1.80533e-05
1.92942e-05
6.24206e-06
6.65415e-06
7.7074e-06
7.8292e-06
6.42285e-06
7.75093e-06
7.66321e-06
1.788e-05
1.9401e-05
6.39579e-06
7.6756e-06
7.62695e-06
1.92404e-05
2.01011e-05
2.14879e-05
8.068e-06
8.08793e-06
8.652e-06
8.58948e-06
1.99203e-05
2.13238e-05
7.90173e-06
7.98034e-06
8.76247e-06
8.33148e-06
8.15922e-06
8.54435e-06
8.83247e-06
1.97028e-05
2.08345e-05
8.10649e-06
8.72644e-06
8.76373e-06
2.14529e-05
2.18017e-05
2.33864e-05
9.24666e-06
8.96944e-06
1.06802e-05
1.06035e-05
2.16533e-05
2.32746e-05
9.30966e-06
8.847e-06
1.05967e-05
1.09567e-05
8.94566e-06
1.06236e-05
1.04583e-05
2.13907e-05
2.39656e-05
8.88324e-06
1.10309e-05
1.04007e-05
2.31548e-05
2.37416e-05
2.45358e-05
1.08273e-05
1.08864e-05
1.12903e-05
1.13832e-05
2.36941e-05
2.48369e-05
1.07351e-05
1.1305e-05
1.1178e-05
1.15952e-05
1.10543e-05
1.14264e-05
1.17512e-05
2.43136e-05
2.4537e-05
1.10196e-05
1.18314e-05
1.18034e-05
2.49207e-05
2.49351e-05
2.68202e-05
1.19946e-05
1.19695e-05
1.40045e-05
1.41541e-05
2.53897e-05
2.67989e-05
1.18607e-05
1.16817e-05
1.39573e-05
1.34408e-05
1.19262e-05
1.40367e-05
1.38164e-05
2.47278e-05
2.64739e-05
1.19194e-05
1.32046e-05
1.35891e-05
2.6499e-05
2.71303e-05
2.77988e-05
1.42355e-05
1.4574e-05
1.47737e-05
1.49393e-05
2.69835e-05
2.71115e-05
1.4195e-05
1.42242e-05
1.49827e-05
1.52317e-05
1.43519e-05
1.48151e-05
1.48836e-05
2.71048e-05
2.80792e-05
1.42551e-05
1.58799e-05
1.50171e-05
2.76209e-05
2.8109e-05
2.91811e-05
1.54918e-05
1.49953e-05
1.70426e-05
1.66609e-05
2.73635e-05
2.96413e-05
1.56988e-05
1.5397e-05
1.70233e-05
1.68917e-05
1.50832e-05
1.68435e-05
1.74224e-05
2.83026e-05
2.92099e-05
1.51954e-05
1.67695e-05
1.72491e-05
2.97178e-05
2.94474e-05
3.05447e-05
1.72067e-05
1.79895e-05
1.8841e-05
2.02031e-05
3.03545e-05
3.12652e-05
1.71485e-05
1.7623e-05
1.85967e-05
1.89835e-05
1.81691e-05
2.00884e-05
1.92954e-05
2.95957e-05
3.04722e-05
1.79861e-05
1.90339e-05
1.91604e-05
3.04916e-05
3.09485e-05
3.1635e-05
1.95369e-05
2.04519e-05
2.0395e-05
2.0628e-05
3.13534e-05
3.13971e-05
1.94229e-05
1.91038e-05
2.06784e-05
1.99954e-05
1.93886e-05
2.04612e-05
1.97164e-05
3.06805e-05
3.1498e-05
1.92607e-05
1.9929e-05
1.97756e-05
3.12787e-05
3.18129e-05
3.2907e-05
2.05706e-05
2.06702e-05
2.24425e-05
2.22597e-05
3.1624e-05
3.29964e-05
2.07908e-05
2.10482e-05
2.2039e-05
2.27284e-05
2.03503e-05
2.24431e-05
2.25947e-05
3.19437e-05
3.31403e-05
2.05543e-05
2.26993e-05
2.25962e-05
3.3203e-05
3.33051e-05
3.41033e-05
2.32454e-05
2.31116e-05
2.45305e-05
2.40013e-05
3.33558e-05
3.39236e-05
2.28595e-05
2.3025e-05
2.44751e-05
2.42754e-05
2.31793e-05
2.37261e-05
2.44379e-05
3.33309e-05
3.39858e-05
2.31816e-05
2.43033e-05
2.4389e-05
3.40531e-05
3.42879e-05
3.51918e-05
2.46352e-05
2.42337e-05
2.56282e-05
2.62681e-05
3.41814e-05
3.5439e-05
2.46722e-05
2.46117e-05
2.57603e-05
2.58471e-05
2.46586e-05
2.64214e-05
2.56821e-05
3.42642e-05
3.53133e-05
2.45918e-05
2.58457e-05
2.55841e-05
3.51246e-05
3.55238e-05
3.62685e-05
2.64056e-05
2.68833e-05
2.80897e-05
2.75966e-05
3.56568e-05
3.58819e-05
2.64194e-05
2.64967e-05
2.80452e-05
2.81634e-05
2.63135e-05
2.75619e-05
2.81365e-05
3.56237e-05
3.63492e-05
2.62038e-05
2.8114e-05
2.81467e-05
3.63752e-05
3.6422e-05
3.72241e-05
2.8278e-05
2.76706e-05
2.87967e-05
2.90739e-05
3.60297e-05
3.76113e-05
2.82463e-05
2.83845e-05
2.87723e-05
2.87272e-05
2.84177e-05
2.90641e-05
2.88719e-05
3.64661e-05
3.69694e-05
2.84957e-05
2.86646e-05
2.89633e-05
3.71919e-05
3.7597e-05
3.89057e-05
2.94652e-05
3.00061e-05
3.16816e-05
3.19679e-05
3.80984e-05
3.90319e-05
2.94084e-05
2.9137e-05
3.16148e-05
3.15286e-05
2.93658e-05
3.19613e-05
3.15757e-05
3.73525e-05
3.90047e-05
2.93836e-05
3.15341e-05
3.15069e-05
3.89314e-05
3.90837e-05
3.92731e-05
3.21351e-05
3.22831e-05
3.25661e-05
3.25583e-05
3.91375e-05
3.91949e-05
3.21172e-05
3.21356e-05
3.2647e-05
3.2918e-05
3.21381e-05
3.2543e-05
3.28192e-05
3.92311e-05
3.94739e-05
3.20817e-05
3.29348e-05
3.27983e-05
3.93898e-05
3.93608e-05
4.04566e-05
3.26016e-05
3.25759e-05
3.36996e-05
3.32852e-05
3.92929e-05
4.02717e-05
3.26769e-05
3.29569e-05
3.35789e-05
3.34119e-05
3.28522e-05
3.32886e-05
3.33538e-05
3.95388e-05
4.02015e-05
3.28314e-05
3.3322e-05
3.33005e-05
4.02027e-05
4.09332e-05
4.1759e-05
3.45788e-05
3.41752e-05
3.58444e-05
3.60822e-05
4.07142e-05
4.19003e-05
3.44997e-05
3.42357e-05
3.56905e-05
3.57142e-05
3.41487e-05
3.59237e-05
3.58618e-05
4.0652e-05
4.18542e-05
3.41451e-05
3.58815e-05
3.58836e-05
4.18695e-05
4.18352e-05
4.25271e-05
3.59304e-05
3.63098e-05
3.68306e-05
3.65548e-05
4.20159e-05
4.22215e-05
3.58159e-05
3.5984e-05
3.7047e-05
3.69135e-05
3.61347e-05
3.65232e-05
3.67498e-05
4.19658e-05
4.23897e-05
3.60919e-05
3.67459e-05
3.67288e-05
4.23491e-05
4.28253e-05
4.32014e-05
3.73189e-05
3.68614e-05
3.79264e-05
3.82106e-05
4.24407e-05
4.35534e-05
3.74361e-05
3.71286e-05
3.78103e-05
3.78734e-05
3.70334e-05
3.83362e-05
3.81057e-05
4.25839e-05
4.32478e-05
3.70679e-05
3.79952e-05
3.8084e-05
4.34065e-05
4.32622e-05
4.43137e-05
3.80127e-05
3.83249e-05
3.9273e-05
3.89484e-05
4.3651e-05
4.39542e-05
3.78908e-05
3.83014e-05
3.92831e-05
3.92902e-05
3.841e-05
3.89147e-05
3.91535e-05
4.34786e-05
4.43051e-05
3.83403e-05
3.92125e-05
3.91372e-05
4.41541e-05
4.4681e-05
4.52339e-05
3.98393e-05
3.95593e-05
4.06099e-05
4.07215e-05
4.42518e-05
4.53388e-05
3.98524e-05
3.94638e-05
4.05928e-05
4.04846e-05
3.94525e-05
4.06102e-05
4.05444e-05
4.44221e-05
4.5086e-05
3.94791e-05
4.04429e-05
4.05835e-05
4.52394e-05
4.5272e-05
4.57784e-05
4.06535e-05
4.08054e-05
4.13479e-05
4.12491e-05
4.54375e-05
4.57836e-05
4.06514e-05
4.09135e-05
4.13691e-05
4.14745e-05
4.08466e-05
4.14914e-05
4.13424e-05
4.53765e-05
4.59028e-05
4.0869e-05
4.15781e-05
4.13014e-05
4.57314e-05
4.6088e-05
4.67239e-05
4.184e-05
4.17653e-05
4.25009e-05
4.26888e-05
4.60365e-05
4.67373e-05
4.17542e-05
4.15288e-05
4.25885e-05
4.24904e-05
4.15385e-05
4.24917e-05
4.25245e-05
4.59473e-05
4.66164e-05
4.14811e-05
4.22799e-05
4.25261e-05
4.67367e-05
4.6809e-05
4.73984e-05
4.26084e-05
4.27506e-05
4.35296e-05
4.32861e-05
4.68133e-05
4.73938e-05
4.27831e-05
4.29938e-05
4.34949e-05
4.36592e-05
4.28604e-05
4.36244e-05
4.36943e-05
4.6974e-05
4.7605e-05
4.29003e-05
4.38307e-05
4.36849e-05
4.75287e-05
4.76287e-05
4.81831e-05
4.39053e-05
4.38146e-05
4.44526e-05
4.47598e-05
4.76908e-05
4.82643e-05
4.37648e-05
4.37073e-05
4.45114e-05
4.44043e-05
4.38869e-05
4.45877e-05
4.42448e-05
4.76443e-05
4.8037e-05
4.38376e-05
4.42805e-05
4.43059e-05
4.79882e-05
4.82931e-05
4.89318e-05
4.45927e-05
4.48188e-05
4.54552e-05
4.49608e-05
4.82935e-05
4.84195e-05
4.48003e-05
4.48062e-05
4.55887e-05
4.54312e-05
4.44696e-05
4.48524e-05
4.5456e-05
4.83054e-05
4.87942e-05
4.4605e-05
4.53695e-05
4.5527e-05
4.89416e-05
4.90773e-05
4.92761e-05
4.57125e-05
4.52638e-05
4.60985e-05
4.63305e-05
4.86947e-05
4.97019e-05
4.56975e-05
4.54712e-05
4.58556e-05
4.58414e-05
4.56589e-05
4.6512e-05
4.61089e-05
4.88316e-05
4.92146e-05
4.56506e-05
4.59106e-05
4.58932e-05
4.92942e-05
4.93615e-05
5.00429e-05
4.62668e-05
4.65208e-05
4.69692e-05
4.70465e-05
4.97954e-05
4.99743e-05
4.60554e-05
4.62598e-05
4.70196e-05
4.72812e-05
4.64148e-05
4.69453e-05
4.73192e-05
4.94917e-05
5.03306e-05
4.62166e-05
4.7327e-05
4.73516e-05
5.03382e-05
5.01985e-05
5.07129e-05
4.71502e-05
4.72212e-05
4.77818e-05
4.77771e-05
5.00643e-05
5.05987e-05
4.72345e-05
4.73966e-05
4.78771e-05
4.76241e-05
4.74356e-05
4.75672e-05
4.75012e-05
5.03947e-05
5.04441e-05
4.75177e-05
4.75513e-05
4.76065e-05
5.03795e-05
5.08763e-05
5.11615e-05
4.80452e-05
4.79686e-05
4.84689e-05
4.82513e-05
5.07534e-05
5.09988e-05
4.81245e-05
4.79078e-05
4.85174e-05
4.85339e-05
4.75818e-05
4.84214e-05
4.86367e-05
5.05782e-05
5.12229e-05
4.76599e-05
4.8533e-05
4.86137e-05
5.13551e-05
5.11882e-05
5.1575e-05
4.8503e-05
4.83022e-05
4.90129e-05
4.90012e-05
5.1034e-05
5.1594e-05
4.85341e-05
4.85813e-05
4.87303e-05
4.89031e-05
4.87923e-05
4.88051e-05
4.89481e-05
5.12763e-05
5.16155e-05
4.87758e-05
4.89709e-05
4.89473e-05
5.1552e-05
5.1836e-05
5.23863e-05
4.93891e-05
4.93864e-05
5.00394e-05
5.00682e-05
5.18726e-05
5.24813e-05
4.91218e-05
4.92622e-05
4.99728e-05
4.99676e-05
4.91438e-05
5.00878e-05
5.00404e-05
5.18502e-05
5.23744e-05
4.91622e-05
5.00109e-05
5.00507e-05
5.24547e-05
5.23897e-05
5.19379e-05
5.00574e-05
5.00914e-05
4.99012e-05
4.99407e-05
5.24899e-05
5.20324e-05
5.00128e-05
4.99971e-05
4.99033e-05
4.98785e-05
5.01088e-05
5.00483e-05
5.00097e-05
5.238e-05
5.19402e-05
5.01182e-05
4.99286e-05
5.00164e-05
5.20327e-05
5.19506e-05
5.34041e-05
4.98782e-05
4.99107e-05
5.06181e-05
5.05356e-05
5.2039e-05
5.33176e-05
4.98862e-05
4.98627e-05
5.06967e-05
5.07402e-05
4.99717e-05
5.05764e-05
5.04329e-05
5.19532e-05
5.34449e-05
4.99755e-05
5.06293e-05
5.0409e-05
5.31496e-05
5.38874e-05
5.50046e-05
5.1411e-05
5.13367e-05
5.27277e-05
5.27161e-05
5.3813e-05
5.49971e-05
5.14791e-05
5.15241e-05
5.27645e-05
5.27988e-05
5.12271e-05
5.273e-05
5.27071e-05
5.39305e-05
5.50513e-05
5.12e-05
5.27735e-05
5.26978e-05
5.49866e-05
5.50602e-05
5.39344e-05
5.28507e-05
5.28505e-05
5.26228e-05
5.26473e-05
5.50583e-05
5.39691e-05
5.28836e-05
5.29139e-05
5.26427e-05
5.2653e-05
5.28643e-05
5.26614e-05
5.27066e-05
5.51046e-05
5.39406e-05
5.28575e-05
5.26701e-05
5.27061e-05
5.40689e-05
5.35603e-05
5.08078e-05
5.19417e-05
5.19897e-05
4.94228e-05
4.94453e-05
5.35947e-05
5.08116e-05
5.19432e-05
5.19289e-05
4.94116e-05
4.93892e-05
5.20928e-05
4.94232e-05
4.94505e-05
5.35577e-05
5.07726e-05
5.21023e-05
4.94069e-05
4.94593e-05
5.08267e-05
5.05834e-05
5.02004e-05
4.88485e-05
4.88652e-05
4.82399e-05
4.82488e-05
5.05837e-05
5.01895e-05
4.88357e-05
4.88133e-05
4.82283e-05
4.82101e-05
4.88464e-05
4.82139e-05
4.81933e-05
5.05462e-05
5.01692e-05
4.88537e-05
4.81998e-05
4.81952e-05
5.01364e-05
5.05257e-05
5.35675e-05
4.83051e-05
4.83126e-05
5.09126e-05
5.09165e-05
5.05133e-05
5.35666e-05
4.82956e-05
4.82797e-05
5.0921e-05
5.09271e-05
4.82517e-05
5.09046e-05
5.0854e-05
5.04992e-05
5.35695e-05
4.82516e-05
5.08971e-05
5.08407e-05
5.35139e-05
5.42042e-05
5.7057e-05
5.19502e-05
5.19576e-05
5.48213e-05
5.48347e-05
5.42072e-05
5.7071e-05
5.1959e-05
5.19682e-05
5.48289e-05
5.48426e-05
5.19132e-05
5.48406e-05
5.48284e-05
5.42106e-05
5.70731e-05
5.19019e-05
5.48357e-05
5.48216e-05
5.70623e-05
5.76392e-05
6.02004e-05
5.57567e-05
5.57702e-05
5.8213e-05
5.8223e-05
5.76536e-05
6.02117e-05
5.57636e-05
5.57763e-05
5.82167e-05
5.82234e-05
5.57721e-05
5.82326e-05
5.82391e-05
5.76547e-05
6.02099e-05
5.57666e-05
5.82288e-05
5.82371e-05
6.02247e-05
6.05326e-05
6.09958e-05
5.87844e-05
5.87928e-05
5.94476e-05
5.94519e-05
6.05431e-05
6.09998e-05
5.87871e-05
5.87915e-05
5.94482e-05
5.94474e-05
5.88112e-05
5.9461e-05
5.94719e-05
6.05408e-05
6.09962e-05
5.881e-05
5.94588e-05
5.94726e-05
6.10182e-05
6.07094e-05
5.64424e-05
5.93804e-05
5.93836e-05
5.61196e-05
5.61136e-05
6.07105e-05
5.64388e-05
5.93804e-05
5.93784e-05
5.6115e-05
5.61051e-05
5.9403e-05
5.6118e-05
5.61234e-05
6.07065e-05
5.64365e-05
5.94043e-05
5.61191e-05
5.61284e-05
5.64485e-05
5.56649e-05
5.1451e-05
5.45728e-05
5.45672e-05
5.05631e-05
5.05588e-05
5.56615e-05
5.14482e-05
5.45688e-05
5.45607e-05
5.05598e-05
5.05571e-05
5.45751e-05
5.05616e-05
5.05626e-05
5.56595e-05
5.14494e-05
5.45794e-05
5.05628e-05
5.05651e-05
5.14521e-05
5.10397e-05
4.94442e-05
4.95683e-05
4.95645e-05
4.78184e-05
4.78165e-05
5.10374e-05
4.94432e-05
4.95652e-05
4.95638e-05
4.78157e-05
4.78169e-05
4.95676e-05
4.78175e-05
4.78183e-05
5.10385e-05
4.94446e-05
4.95695e-05
4.78182e-05
4.78183e-05
4.94449e-05
4.94291e-05
5.00957e-05
4.76118e-05
4.76103e-05
4.7718e-05
4.7718e-05
4.94282e-05
5.00957e-05
4.76093e-05
4.76108e-05
4.77159e-05
4.77181e-05
4.7612e-05
4.7718e-05
4.77192e-05
4.94295e-05
5.00963e-05
4.76114e-05
4.77181e-05
4.77175e-05
5.00967e-05
5.04454e-05
5.20804e-05
4.82329e-05
4.82342e-05
4.99567e-05
4.9958e-05
5.04457e-05
5.20809e-05
4.82314e-05
4.82337e-05
4.99559e-05
4.9957e-05
4.82349e-05
4.99583e-05
4.99586e-05
5.04461e-05
5.2081e-05
4.82326e-05
4.99581e-05
4.99576e-05
5.20817e-05
5.23872e-05
5.34285e-05
5.04326e-05
5.04338e-05
5.14755e-05
5.14765e-05
5.23878e-05
5.34288e-05
5.04321e-05
5.04327e-05
5.14755e-05
5.14754e-05
5.04347e-05
5.14775e-05
5.14779e-05
5.23877e-05
5.34287e-05
5.04338e-05
5.14777e-05
5.14776e-05
5.34301e-05
5.35933e-05
5.40431e-05
5.17033e-05
5.17042e-05
5.21138e-05
5.21145e-05
5.35937e-05
5.40433e-05
5.17036e-05
5.17032e-05
5.21141e-05
5.21136e-05
5.17058e-05
5.21159e-05
5.21164e-05
5.35935e-05
5.40431e-05
5.17058e-05
5.21164e-05
5.21167e-05
5.40448e-05
5.41181e-05
5.4272e-05
5.21907e-05
5.21913e-05
5.2321e-05
5.23215e-05
5.41182e-05
5.42723e-05
5.2191e-05
5.21904e-05
5.23212e-05
5.23207e-05
5.21933e-05
5.23233e-05
5.23236e-05
5.4118e-05
5.42721e-05
5.21936e-05
5.23236e-05
5.23239e-05
5.42737e-05
5.43089e-05
5.43532e-05
5.23462e-05
5.23467e-05
5.23824e-05
5.23828e-05
5.43093e-05
5.43534e-05
5.23465e-05
5.2346e-05
5.23826e-05
5.2382e-05
5.23489e-05
5.23846e-05
5.2385e-05
5.4309e-05
5.43532e-05
5.23492e-05
5.2385e-05
5.23854e-05
5.4355e-05
5.4373e-05
5.43738e-05
5.23872e-05
5.23877e-05
5.23883e-05
5.23888e-05
5.43733e-05
5.43741e-05
5.23875e-05
5.23869e-05
5.23886e-05
5.23879e-05
5.23899e-05
5.23905e-05
5.2391e-05
5.4373e-05
5.43738e-05
5.23902e-05
5.23909e-05
5.23913e-05
5.43757e-05
5.4389e-05
5.43643e-05
5.23871e-05
5.23876e-05
5.23729e-05
5.23734e-05
5.43893e-05
5.43645e-05
5.23874e-05
5.23867e-05
5.23733e-05
5.23726e-05
5.23898e-05
5.23753e-05
5.23757e-05
5.4389e-05
5.43642e-05
5.23901e-05
5.23756e-05
5.23759e-05
5.4366e-05
5.43771e-05
5.43602e-05
5.23715e-05
5.2372e-05
5.23714e-05
5.23719e-05
5.43772e-05
5.43607e-05
5.23719e-05
5.23712e-05
5.23717e-05
5.23711e-05
5.23743e-05
5.23738e-05
5.23741e-05
5.43769e-05
5.43604e-05
5.23745e-05
5.23741e-05
5.23743e-05
5.4362e-05
5.43785e-05
5.43777e-05
5.23752e-05
5.23759e-05
5.23768e-05
5.23773e-05
5.43791e-05
5.43779e-05
5.23756e-05
5.23749e-05
5.23772e-05
5.23764e-05
5.23779e-05
5.23791e-05
5.23794e-05
5.43786e-05
5.43775e-05
5.23781e-05
5.23793e-05
5.23796e-05
5.43793e-05
5.43914e-05
5.43578e-05
5.23765e-05
5.2377e-05
5.23704e-05
5.23709e-05
5.43915e-05
5.43579e-05
5.23769e-05
5.2376e-05
5.23708e-05
5.237e-05
5.23791e-05
5.23727e-05
5.23731e-05
5.4391e-05
5.43577e-05
5.23793e-05
5.2373e-05
5.23733e-05
5.43594e-05
5.43723e-05
5.43709e-05
5.23718e-05
5.23723e-05
5.23727e-05
5.23733e-05
5.43725e-05
5.43714e-05
5.23722e-05
5.23715e-05
5.23732e-05
5.23724e-05
5.23745e-05
5.2375e-05
5.23754e-05
5.43722e-05
5.43711e-05
5.23747e-05
5.23753e-05
5.23756e-05
5.43727e-05
5.4388e-05
5.43666e-05
5.23751e-05
5.23756e-05
5.23718e-05
5.23722e-05
5.43885e-05
5.43662e-05
5.23755e-05
5.23747e-05
5.23723e-05
5.23714e-05
5.23777e-05
5.23741e-05
5.23744e-05
5.4388e-05
5.43659e-05
5.23779e-05
5.23743e-05
5.23745e-05
5.43677e-05
5.43792e-05
5.43621e-05
5.23738e-05
5.23743e-05
5.2371e-05
5.23715e-05
5.43789e-05
5.43626e-05
5.23743e-05
5.23734e-05
5.23715e-05
5.23707e-05
5.23764e-05
5.23734e-05
5.23737e-05
5.43785e-05
5.43624e-05
5.23766e-05
5.23737e-05
5.23739e-05
5.4364e-05
5.43794e-05
5.4372e-05
5.23753e-05
5.23758e-05
5.23716e-05
5.23721e-05
5.438e-05
5.43722e-05
5.23758e-05
5.2375e-05
5.23721e-05
5.23713e-05
5.2378e-05
5.23739e-05
5.23742e-05
5.43798e-05
5.43718e-05
5.23781e-05
5.23742e-05
5.23744e-05
5.43735e-05
5.4386e-05
5.4359e-05
5.23766e-05
5.2377e-05
5.23684e-05
5.23689e-05
5.4386e-05
5.43591e-05
5.2377e-05
5.23763e-05
5.23688e-05
5.23682e-05
5.23791e-05
5.23707e-05
5.2371e-05
5.43855e-05
5.43589e-05
5.23793e-05
5.2371e-05
5.23712e-05
5.43605e-05
5.43722e-05
5.42069e-05
5.23603e-05
5.23608e-05
5.22161e-05
5.22169e-05
5.43727e-05
5.42075e-05
5.23607e-05
5.236e-05
5.22179e-05
5.2215e-05
5.23628e-05
5.22202e-05
5.22182e-05
5.43723e-05
5.42067e-05
5.23629e-05
5.22191e-05
5.22197e-05
5.42083e-05
5.40637e-05
5.12639e-05
5.12647e-05
5.40644e-05
5.12659e-05
5.12627e-05
4.12628e-05
4.12616e-05
4.12636e-05
5.12659e-05
5.40634e-05
5.12677e-05
1.59988e-06
3.00302e-07
9.77588e-07
9.75072e-07
1.01148e-07
3.43508e-07
4.49199e-07
5.07472e-07
1.06005e-07
3.11588e-07
5.20209e-07
2.03756e-07
3.65492e-07
2.81786e-07
2.69432e-07
3.00687e-07
4.96303e-06
2.62464e-07
6.65046e-06
1.37768e-05
2.11217e-05
3.00167e-07
4.94684e-06
2.58237e-07
6.62908e-06
5.21261e-07
5.23342e-07
5.32796e-07
5.1687e-07
5.15355e-07
5.17337e-07
5.28067e-07
1.03275e-07
6.94683e-07
2.81308e-07
3.37437e-07
1.02987e-07
6.6671e-07
2.77657e-07
1.41364e-05
2.16881e-05
1.09165e-07
2.66763e-07
5.23268e-07
2.74208e-07
1.09446e-07
2.64058e-07
5.08432e-07
1.90343e-06
1.89733e-06
3.48948e-07
1.88084e-06
1.87233e-06
4.90282e-07
9.80977e-06
4.02975e-07
1.25835e-05
3.65247e-05
4.65291e-05
5.03282e-07
9.77659e-06
3.97332e-07
1.25976e-05
5.15653e-07
5.17823e-07
5.28545e-07
5.18698e-07
5.17245e-07
5.19723e-07