/*--------------------------------*- C++ -*----------------------------------*\
| =========                 |                                                 |
| \\      /  F ield         | OpenFOAM: The Open Source CFD Toolbox           |
|  \\    /   O peration     | Version:  v1906                                 |
|   \\  /    A nd           | Web:      www.OpenFOAM.com                      |
|    \\/     M anipulation  |                                                 |
\*---------------------------------------------------------------------------*/
FoamFile
{
    version     2.0;
    format      ascii;
    class       volScalarField;
    location    "312.5";
    object      nut;
}
// * * * * * * * * * * * * * * * * * * * * * * * * * * * * * * * * * * * * * //

dimensions      [0 2 -1 0 0 0 0];


internalField   nonuniform List<scalar> 
171728
(
6.88722e-06
2.18028e-06
2.02591e-06
2.25803e-06
6.79848e-06
2.16875e-06
1.94051e-06
2.21697e-06
6.9283e-06
2.16397e-06
1.91569e-06
2.17037e-06
7.06512e-06
2.16677e-06
1.90425e-06
2.14961e-06
7.20297e-06
2.16592e-06
1.89214e-06
2.1691e-06
7.34629e-06
2.18113e-06
1.85616e-06
2.3131e-06
7.50257e-06
2.16124e-06
1.79884e-06
2.54748e-06
7.67375e-06
2.12198e-06
1.74224e-06
2.65588e-06
7.84965e-06
2.10508e-06
1.68702e-06
2.24641e-06
8.03123e-06
2.0738e-06
1.6188e-06
2.01952e-06
8.20754e-06
2.01967e-06
1.55812e-06
1.92289e-06
8.37223e-06
1.9499e-06
1.54783e-06
1.82923e-06
8.55774e-06
1.85305e-06
1.55925e-06
1.72589e-06
8.7108e-06
1.74851e-06
1.59684e-06
1.62729e-06
8.87504e-06
1.63697e-06
2.04835e-06
1.51878e-06
9.03018e-06
1.51749e-06
2.70926e-06
1.40337e-06
9.16169e-06
1.42063e-06
3.04796e-06
1.29701e-06
9.30593e-06
1.3502e-06
2.77778e-06
1.25838e-06
9.4362e-06
1.30695e-06
2.15479e-06
1.26019e-06
9.54839e-06
1.36002e-06
1.87309e-06
1.3691e-06
9.65561e-06
1.5972e-06
1.96906e-06
1.75566e-06
9.72514e-06
1.87067e-06
1.90941e-06
2.34517e-06
9.75276e-06
2.29807e-06
2.43999e-06
3.73876e-06
9.80141e-06
3.08421e-06
3.06689e-06
5.69696e-06
9.68944e-06
4.0062e-06
3.83814e-06
8.5326e-06
9.63816e-06
5.91395e-06
5.72694e-06
1.27606e-05
9.41362e-06
6.64725e-06
6.85329e-06
1.81944e-05
9.20922e-06
9.69834e-06
9.04047e-06
2.31691e-05
9.07107e-06
1.23579e-05
1.19044e-05
3.18548e-05
8.61367e-06
1.59991e-05
1.46952e-05
3.98953e-05
8.89914e-06
1.78092e-05
1.76855e-05
4.40004e-05
8.07933e-06
2.10946e-05
2.34774e-05
5.3853e-05
8.78882e-06
2.84675e-05
2.67313e-05
5.92298e-05
8.6774e-06
2.88818e-05
3.08179e-05
6.47992e-05
9.79873e-06
3.84617e-05
4.06894e-05
7.02581e-05
8.69948e-06
3.92058e-05
4.03966e-05
7.48123e-05
1.17407e-05
5.12885e-05
4.749e-05
8.03442e-05
1.12617e-05
4.95797e-05
5.61303e-05
8.21771e-05
1.38512e-05
6.0927e-05
5.91655e-05
9.08728e-05
1.51525e-05
7.21679e-05
6.6249e-05
9.19277e-05
1.81232e-05
6.91427e-05
7.00498e-05
9.40379e-05
1.91916e-05
7.92305e-05
7.86239e-05
0.000101481
2.56804e-05
8.05401e-05
8.37813e-05
0.000103565
2.47859e-05
9.31658e-05
8.95787e-05
0.000107747
3.39259e-05
9.30787e-05
9.75197e-05
0.000111731
3.29024e-05
0.000101086
9.63552e-05
0.000114138
4.31901e-05
0.000112156
0.00011065
0.000121488
4.97421e-05
0.000110833
0.000113262
0.000121668
4.63478e-05
0.000115253
0.000114324
0.000125078
6.1956e-05
0.000124349
0.000124359
0.000131144
6.4829e-05
0.000126257
0.000126345
0.000132428
7.21865e-05
0.000132848
0.000132184
0.000136516
7.46691e-05
0.000134886
0.000135243
0.000138978
8.85491e-05
0.000141574
0.000142001
0.00014346
9.03835e-05
0.0001454
0.000144776
0.000144495
9.97526e-05
0.000148502
0.000149404
0.000149063
0.00010552
0.000154846
0.000154646
0.000151795
0.000113093
0.000157759
0.000157254
0.00015342
0.00012184
0.000159485
0.000160954
0.000157517
0.000125095
0.00016719
0.000164023
0.000158562
0.000132543
0.000168151
0.000170746
0.000163411
0.000138904
0.000172076
0.000170669
0.000162751
0.00014682
0.000175337
0.000175999
0.000167826
0.000148737
0.000178344
0.000179033
0.000168504
0.000160309
0.000184828
0.000184315
0.000173283
0.000162632
0.000183643
0.000182819
0.000170361
0.000163281
0.000189113
0.000189543
0.000176268
0.000187343
0.000201029
0.000201317
0.000185853
0.000196353
0.000202231
0.000202145
0.000184119
0.000178624
0.000183107
0.000183022
0.00016874
0.000160774
0.000174787
0.000174709
0.000162863
0.000169801
0.000191796
0.00019177
0.00017719
0.000208914
0.000211516
0.000211493
0.000191313
0.000241786
0.000230794
0.000230771
0.00020645
0.000262845
0.000242981
0.000242957
0.00021472
0.000251083
0.000221104
0.000221101
0.00019605
0.00020034
0.000192882
0.000192882
0.000175207
0.000168889
0.000181208
0.000181205
0.000166592
0.000161095
0.000183824
0.000183815
0.000169922
0.000190786
0.000197828
0.000197818
0.000179087
0.00021459
0.000206397
0.000206388
0.000184762
0.000226105
0.000209912
0.000209903
0.000187116
0.000230885
0.000211124
0.000211115
0.000187916
0.000232795
0.000211489
0.000211479
0.000188164
0.000233333
0.000211536
0.000211526
0.000188243
0.000233346
0.000211441
0.000211431
0.000188183
0.000233396
0.000211459
0.000211449
0.000188148
0.000233421
0.000211475
0.000211465
0.000188251
0.000233389
0.00021144
0.00021143
0.000188135
0.000233398
0.000211459
0.000211449
0.000188216
0.000233396
0.000211452
0.000211442
0.000188186
0.000233396
0.000211456
0.000211446
0.000188165
0.000233398
0.000211463
0.000211453
0.000188222
0.000233367
0.000211382
0.000211371
0.000188165
0.000235298
0.000212697
0.00021269
0.000191662
2.4116e-06
2.6385e-06
2.43007e-06
2.30052e-06
2.48786e-06
2.62441e-06
7.13956e-06
7.11777e-06
7.22224e-06
7.11378e-06
2.47367e-06
2.29134e-06
2.35311e-06
2.50698e-06
2.45073e-06
2.26821e-06
2.41023e-06
2.39126e-06
2.2562e-06
2.31044e-06
2.24403e-06
2.22813e-06
2.3008e-06
2.29555e-06
2.23571e-06
2.31003e-06
2.21819e-06
2.29178e-06
2.00577e-06
2.16972e-06
2.03395e-06
2.35116e-06
2.33966e-06
2.24434e-06
1.95076e-06
2.20995e-06
2.22374e-06
2.38991e-06
2.37269e-06
2.24435e-06
2.20519e-06
2.24551e-06
2.17052e-06
2.29527e-06
2.28034e-06
2.21606e-06
2.28973e-06
2.21073e-06
2.28258e-06
2.05788e-06
2.16604e-06
2.14557e-06
2.33912e-06
2.3338e-06
2.19768e-06
1.92081e-06
2.17559e-06
2.17705e-06
2.37085e-06
2.34794e-06
2.24453e-06
2.16584e-06
2.24599e-06
2.15942e-06
2.26604e-06
2.25629e-06
2.20951e-06
2.2803e-06
2.20385e-06
2.27457e-06
2.18351e-06
2.16457e-06
2.31985e-06
2.33303e-06
2.32459e-06
2.1779e-06
1.90603e-06
2.18944e-06
2.15193e-06
2.34508e-06
2.31763e-06
2.247e-06
2.15736e-06
2.24569e-06
2.14931e-06
2.23483e-06
2.22931e-06
2.20251e-06
2.27399e-06
2.19926e-06
2.26404e-06
2.37182e-06
2.16595e-06
2.55837e-06
2.32317e-06
2.31043e-06
2.19046e-06
1.89739e-06
2.19156e-06
2.16805e-06
2.31401e-06
2.28748e-06
2.2442e-06
2.14614e-06
2.23443e-06
2.13815e-06
2.2071e-06
2.19988e-06
2.19595e-06
2.25991e-06
2.1825e-06
2.24736e-06
2.64557e-06
2.17863e-06
3.06876e-06
2.30831e-06
2.29247e-06
2.18616e-06
1.86702e-06
2.15762e-06
2.29917e-06
2.28331e-06
2.2595e-06
2.22844e-06
2.13431e-06
2.20708e-06
2.11916e-06
2.18096e-06
2.17252e-06
2.17816e-06
2.2429e-06
2.16238e-06
2.2276e-06
3.31888e-06
2.17037e-06
4.34638e-06
2.28897e-06
2.25909e-06
2.15202e-06
1.81517e-06
2.15098e-06
2.55212e-06
2.25485e-06
2.23691e-06
2.2034e-06
2.11177e-06
2.1866e-06
2.08529e-06
2.15324e-06
2.13855e-06
2.15496e-06
2.22359e-06
2.12858e-06
2.20813e-06
4.6948e-06
2.13139e-06
5.19072e-06
2.25381e-06
2.21224e-06
2.1537e-06
1.75309e-06
2.15753e-06
2.69617e-06
2.2315e-06
2.20655e-06
2.17933e-06
2.07659e-06
2.14841e-06
2.048e-06
2.1184e-06
2.09726e-06
2.11968e-06
2.20268e-06
2.09003e-06
2.18151e-06
4.75921e-06
2.10904e-06
3.32474e-06
2.20575e-06
2.14997e-06
2.15479e-06
1.70279e-06
2.12757e-06
2.29089e-06
2.19945e-06
2.1638e-06
2.13566e-06
2.03798e-06
2.09558e-06
2.00293e-06
2.08334e-06
2.05081e-06
2.07938e-06
2.17539e-06
2.04682e-06
2.14518e-06
2.88794e-06
2.0842e-06
1.96191e-06
2.1417e-06
2.06953e-06
2.11404e-06
1.63516e-06
2.07138e-06
2.03352e-06
2.15455e-06
2.0989e-06
2.07768e-06
1.99101e-06
2.02478e-06
1.94498e-06
2.0406e-06
1.99795e-06
2.03339e-06
2.13107e-06
1.98632e-06
2.07541e-06
1.7752e-06
2.03591e-06
1.44658e-06
2.05911e-06
1.96848e-06
2.05832e-06
1.57334e-06
2.00463e-06
1.93236e-06
2.08742e-06
2.01768e-06
2.00687e-06
1.9279e-06
1.94863e-06
1.8782e-06
1.98712e-06
1.92951e-06
1.97165e-06
2.05328e-06
1.9148e-06
1.98664e-06
1.39434e-06
1.96972e-06
1.33199e-06
1.95573e-06
1.87121e-06
1.98152e-06
1.5398e-06
1.91903e-06
1.84128e-06
2.00404e-06
1.9246e-06
1.92882e-06
1.85881e-06
1.86063e-06
1.80116e-06
1.91583e-06
1.84932e-06
1.89529e-06
1.96325e-06
1.83611e-06
1.89274e-06
1.32379e-06
1.87907e-06
1.31132e-06
1.85894e-06
1.80119e-06
1.90045e-06
1.56343e-06
1.83832e-06
1.74053e-06
1.90628e-06
1.80961e-06
1.83657e-06
1.7792e-06
1.76007e-06
1.70298e-06
1.83222e-06
1.75147e-06
1.81337e-06
1.87034e-06
1.7291e-06
1.79747e-06
1.30374e-06
1.7749e-06
1.27636e-06
1.78541e-06
1.74538e-06
1.81589e-06
1.55466e-06
1.75359e-06
1.64637e-06
1.78699e-06
1.68394e-06
1.7331e-06
1.67441e-06
1.6441e-06
1.59587e-06
1.72921e-06
1.63435e-06
1.70541e-06
1.77234e-06
1.63876e-06
1.69539e-06
1.26624e-06
1.66555e-06
1.23012e-06
1.73127e-06
1.75957e-06
1.73063e-06
1.89306e-06
1.65069e-06
1.54194e-06
1.65524e-06
1.55295e-06
1.61631e-06
1.56956e-06
1.53339e-06
1.49261e-06
1.60591e-06
1.50593e-06
1.61549e-06
1.66795e-06
1.53203e-06
1.59331e-06
1.21826e-06
1.5504e-06
1.18226e-06
1.76435e-06
1.84957e-06
1.62385e-06
2.57538e-06
1.54103e-06
1.4323e-06
1.52365e-06
1.42293e-06
1.50949e-06
1.46669e-06
1.43629e-06
1.40396e-06
1.47568e-06
1.38557e-06
1.50457e-06
1.56913e-06
1.42561e-06
1.49633e-06
1.17436e-06
1.44391e-06
1.15393e-06
1.84801e-06
1.83958e-06
1.51606e-06
3.04208e-06
1.4382e-06
1.32903e-06
1.39585e-06
1.32566e-06
1.41673e-06
1.38523e-06
1.36536e-06
1.32548e-06
1.36292e-06
1.27091e-06
1.41286e-06
1.47459e-06
1.36902e-06
1.41564e-06
1.14559e-06
1.35096e-06
1.15368e-06
1.80997e-06
1.68807e-06
1.41043e-06
2.85548e-06
1.37024e-06
1.27391e-06
1.31527e-06
1.28608e-06
1.35392e-06
1.32656e-06
1.3365e-06
1.30346e-06
1.26015e-06
1.26978e-06
1.35696e-06
1.40171e-06
1.33754e-06
1.37306e-06
1.14747e-06
1.30889e-06
1.18925e-06
1.65088e-06
1.54792e-06
1.34022e-06
2.28701e-06
1.32101e-06
1.22796e-06
1.29638e-06
1.36357e-06
1.34487e-06
1.30536e-06
1.36017e-06
1.37741e-06
1.24959e-06
1.39267e-06
1.34526e-06
1.3732e-06
1.36286e-06
1.40481e-06
1.22191e-06
1.36812e-06
1.26933e-06
1.52456e-06
1.482e-06
1.34488e-06
1.87111e-06
1.36604e-06
1.3622e-06
1.38149e-06
1.71027e-06
1.40663e-06
1.37124e-06
1.4882e-06
1.563e-06
1.43272e-06
1.64297e-06
1.40582e-06
1.42216e-06
1.50211e-06
1.51516e-06
1.28861e-06
1.53939e-06
1.45982e-06
1.524e-06
1.70634e-06
1.36944e-06
1.87175e-06
1.50337e-06
1.62522e-06
1.74273e-06
2.43343e-06
1.50554e-06
1.627e-06
1.88968e-06
1.72383e-06
1.83797e-06
2.05504e-06
1.51491e-06
1.6139e-06
1.87485e-06
1.74616e-06
1.53202e-06
1.70057e-06
1.71226e-06
1.78873e-06
2.36729e-06
1.57809e-06
1.96649e-06
1.74281e-06
2.23339e-06
2.78922e-06
2.79073e-06
1.95726e-06
1.89404e-06
2.1225e-06
2.21809e-06
2.15711e-06
3.71899e-06
1.94549e-06
1.82535e-06
2.10718e-06
2.2497e-06
1.82507e-06
2.18824e-06
2.20942e-06
2.3504e-06
3.64667e-06
1.8449e-06
2.34817e-06
2.22761e-06
3.51334e-06
2.99076e-06
5.89503e-06
2.38992e-06
2.31463e-06
2.93216e-06
2.93286e-06
3.77715e-06
5.34088e-06
2.39636e-06
2.4234e-06
2.88375e-06
2.78933e-06
2.34202e-06
2.88824e-06
2.89588e-06
4.00019e-06
5.0939e-06
2.35297e-06
2.7829e-06
2.88558e-06
5.2178e-06
5.89059e-06
8.47485e-06
3.21931e-06
3.13556e-06
3.66121e-06
3.87859e-06
6.07697e-06
7.43596e-06
3.15113e-06
3.0202e-06
3.70034e-06
4.02395e-06
3.10653e-06
3.89471e-06
3.8576e-06
5.52858e-06
8.30097e-06
3.07318e-06
3.82431e-06
3.84961e-06
7.8564e-06
8.96485e-06
1.16697e-05
3.79966e-06
4.0169e-06
5.50576e-06
5.22515e-06
8.09812e-06
1.15895e-05
3.81322e-06
4.08932e-06
5.46412e-06
5.07865e-06
4.19568e-06
5.13422e-06
5.05703e-06
9.15112e-06
1.02648e-05
4.23271e-06
5.06187e-06
4.94951e-06
1.20981e-05
1.37101e-05
1.60076e-05
5.8265e-06
5.95008e-06
6.46564e-06
6.46122e-06
1.22012e-05
1.84951e-05
5.77241e-06
5.72379e-06
6.54225e-06
6.6836e-06
5.39764e-06
6.50561e-06
6.8551e-06
1.15623e-05
1.84092e-05
5.27007e-06
6.35817e-06
6.91333e-06
1.64948e-05
1.59337e-05
2.44949e-05
7.04279e-06
6.6875e-06
8.80094e-06
9.65581e-06
1.87219e-05
2.36989e-05
7.10238e-06
6.88347e-06
8.8119e-06
9.16026e-06
7.16976e-06
9.57871e-06
9.06673e-06
1.84109e-05
2.2633e-05
7.10912e-06
8.67812e-06
8.9722e-06
2.24228e-05
2.61018e-05
2.96546e-05
9.33676e-06
9.77156e-06
1.15914e-05
1.02026e-05
2.62245e-05
2.6574e-05
9.41486e-06
9.68064e-06
1.14552e-05
1.08706e-05
9.9648e-06
1.02303e-05
1.04533e-05
2.49128e-05
2.95174e-05
9.90287e-06
1.11391e-05
1.05836e-05
3.13015e-05
3.17082e-05
3.58589e-05
1.21099e-05
1.24443e-05
1.33517e-05
1.62754e-05
2.89657e-05
4.34599e-05
1.21769e-05
1.18895e-05
1.34272e-05
1.42002e-05
1.09378e-05
1.62209e-05
1.51798e-05
3.03653e-05
3.78278e-05
1.13086e-05
1.37648e-05
1.46872e-05
3.68386e-05
3.66375e-05
4.70638e-05
1.46058e-05
1.60111e-05
1.89372e-05
1.54672e-05
4.34662e-05
3.73086e-05
1.40814e-05
1.46471e-05
1.86901e-05
1.75747e-05
1.55206e-05
1.52008e-05
1.71811e-05
3.95034e-05
4.33966e-05
1.51945e-05
1.72902e-05
1.70879e-05
4.39686e-05
4.85249e-05
4.8821e-05
1.92785e-05
1.78816e-05
1.90527e-05
2.10981e-05
3.94002e-05
5.47632e-05
1.98137e-05
1.83572e-05
1.96123e-05
2.05648e-05
1.85992e-05
2.10607e-05
2.1086e-05
4.46629e-05
5.13148e-05
1.84618e-05
2.15007e-05
2.09493e-05
5.2453e-05
4.9848e-05
5.77732e-05
2.06255e-05
2.15159e-05
2.73007e-05
2.66826e-05
5.52592e-05
5.73809e-05
2.01632e-05
2.23023e-05
2.66732e-05
2.77374e-05
2.13638e-05
2.67554e-05
2.59629e-05
5.37865e-05
5.88651e-05
2.12728e-05
2.66165e-05
2.58578e-05
5.69555e-05
5.9927e-05
6.44874e-05
2.81015e-05
2.81947e-05
2.85624e-05
2.86729e-05
5.94522e-05
6.3613e-05
2.71173e-05
2.80895e-05
2.92728e-05
2.68411e-05
2.82716e-05
2.85872e-05
3.03981e-05
5.93551e-05
6.07343e-05
2.80679e-05
2.88318e-05
3.009e-05
6.42525e-05
6.5139e-05
6.99068e-05
3.10717e-05
2.98134e-05
3.77502e-05
3.70472e-05
6.42903e-05
6.94182e-05
3.15744e-05
2.84879e-05
3.74168e-05
3.86531e-05
3.00107e-05
3.70601e-05
3.55793e-05
6.21862e-05
7.26808e-05
2.97468e-05
3.87607e-05
3.52741e-05
6.86402e-05
7.08957e-05
7.2222e-05
3.79394e-05
3.8062e-05
3.68257e-05
3.73513e-05
7.05257e-05
7.30379e-05
3.75644e-05
4.03347e-05
3.63697e-05
3.98743e-05
3.84216e-05
3.78371e-05
4.01107e-05
7.38422e-05
7.28953e-05
3.82223e-05
4.1212e-05
4.07196e-05
7.40327e-05
7.31439e-05
8.02794e-05
3.95893e-05
3.93833e-05
4.91527e-05
4.98118e-05
7.50937e-05
8.12049e-05
3.89327e-05
3.90544e-05
4.87833e-05
4.50631e-05
3.98214e-05
4.92711e-05
4.76611e-05
7.28001e-05
7.81967e-05
4.01784e-05
4.3444e-05
4.62284e-05
7.90798e-05
8.11776e-05
8.28028e-05
4.98125e-05
5.1875e-05
4.91847e-05
5.14905e-05
8.15065e-05
7.97161e-05
4.9412e-05
4.88265e-05
5.03603e-05
5.2502e-05
5.01979e-05
5.08052e-05
5.03356e-05
8.07585e-05
8.40959e-05
4.94335e-05
5.58348e-05
5.11941e-05
8.1523e-05
8.36202e-05
8.70767e-05
5.21821e-05
5.02144e-05
5.86747e-05
5.37774e-05
7.98065e-05
8.79904e-05
5.35151e-05
5.22853e-05
5.88458e-05
5.68981e-05
4.9835e-05
5.49476e-05
5.93296e-05
8.44676e-05
8.71126e-05
5.07111e-05
5.63911e-05
5.85532e-05
8.95079e-05
8.76593e-05
9.14088e-05
5.83754e-05
6.03236e-05
6.38714e-05
7.17693e-05
9.12088e-05
9.5663e-05
5.83693e-05
6.0138e-05
6.23781e-05
6.59384e-05
6.29482e-05
7.13522e-05
6.79285e-05
8.84345e-05
9.14415e-05
6.20817e-05
6.61251e-05
6.72227e-05
9.18608e-05
9.29238e-05
9.5156e-05
6.71253e-05
7.27864e-05
6.95719e-05
7.12652e-05
9.56415e-05
9.39896e-05
6.62261e-05
6.5604e-05
7.14127e-05
6.5856e-05
6.7599e-05
7.02883e-05
6.50346e-05
9.18157e-05
9.38714e-05
6.6831e-05
6.5677e-05
6.52412e-05
9.28682e-05
9.53685e-05
9.90797e-05
6.91488e-05
7.00899e-05
7.55966e-05
7.48074e-05
9.43324e-05
9.95784e-05
7.0933e-05
7.07516e-05
7.35886e-05
7.79287e-05
6.7146e-05
7.62663e-05
7.66723e-05
9.54745e-05
0.000100463
6.83937e-05
7.77248e-05
7.67432e-05
0.000100577
0.000100575
0.000103455
7.93257e-05
7.90189e-05
8.46813e-05
8.12694e-05
0.000100915
0.000102301
7.71506e-05
7.85628e-05
8.41247e-05
8.27506e-05
7.90817e-05
7.95041e-05
8.39284e-05
0.000100903
0.000102637
7.91825e-05
8.29461e-05
8.38139e-05
0.000103326
0.000103776
0.000106912
8.42056e-05
8.1127e-05
8.56671e-05
8.95584e-05
0.00010298
0.000108534
8.42195e-05
8.36202e-05
8.65756e-05
8.6876e-05
8.41761e-05
9.04996e-05
8.61098e-05
0.00010341
0.000107411
8.39506e-05
8.6958e-05
8.56379e-05
0.000106481
0.00010816
0.00011087
8.90857e-05
9.25091e-05
9.67519e-05
9.42248e-05
0.000109255
0.000108834
8.92838e-05
8.95313e-05
9.65526e-05
9.72125e-05
8.85507e-05
9.40987e-05
9.68387e-05
0.000108581
0.000111513
8.79401e-05
9.70486e-05
9.67199e-05
0.00011146
0.000111032
0.000113169
9.69825e-05
9.32696e-05
9.57897e-05
9.66185e-05
0.000108763
0.000114842
9.68808e-05
9.77794e-05
9.58153e-05
9.58014e-05
9.77282e-05
9.65757e-05
9.6486e-05
0.00011157
0.000111809
9.80518e-05
9.54648e-05
9.71737e-05
0.000113021
0.00011455
0.000120646
9.8278e-05
0.000101029
0.000108834
0.000110727
0.000117003
0.000121422
9.81002e-05
9.65318e-05
0.000108381
0.000107515
9.78585e-05
0.000110783
0.000107919
0.000113096
0.000120935
9.81367e-05
0.000107556
0.000107579
0.000120646
0.000121232
0.000121178
0.000111094
0.000112114
0.000111715
0.000111833
0.000121615
0.000120809
0.000110896
0.000110609
0.000112248
0.000113737
0.000110762
0.000111776
0.000113222
0.000121815
0.000122235
0.000110472
0.000113887
0.000113179
0.000121866
0.000121044
0.00012455
0.000110761
0.000110925
0.000112967
0.000110701
0.000120739
0.000123687
0.000111344
0.000113036
0.00011236
0.000111492
0.000112491
0.000110746
0.00011126
0.00012203
0.000123262
0.00011245
0.000111028
0.000110885
0.000123311
0.000126614
0.000130345
0.000117437
0.000114872
0.00012357
0.000124669
0.00012548
0.000131038
0.000117065
0.000115432
0.000122503
0.000122433
0.000114891
0.000123936
0.000123241
0.000125044
0.0001308
0.000114797
0.000123413
0.00012351
0.000130847
0.000130322
0.000132661
0.000123285
0.000125629
0.00012585
0.000124428
0.000131308
0.000131154
0.000122318
0.000123314
0.000127259
0.000126878
0.000124336
0.000123986
0.00012579
0.000131039
0.00013218
0.000124188
0.000126032
0.000125614
0.000131908
0.000133889
0.000135184
0.000128269
0.000125196
0.000130374
0.000131925
0.000131701
0.000136823
0.000129218
0.000127488
0.0001298
0.000129368
0.000126613
0.000132575
0.000130859
0.000132744
0.000135072
0.00012682
0.000129964
0.000130877
0.00013592
0.000135005
0.000138779
0.000129927
0.00013205
0.000134571
0.000132764
0.000137014
0.000137195
0.000129198
0.000131205
0.000134573
0.000135569
0.000132107
0.000132859
0.00013456
0.000135827
0.00013933
0.000131777
0.000135322
0.000134386
0.000138413
0.000140398
0.000143029
0.000137553
0.000135716
0.000141373
0.000141839
0.000138179
0.000143349
0.00013761
0.000135897
0.000141195
0.000139806
0.000135603
0.000140806
0.000140422
0.000139547
0.000141858
0.000135712
0.000139457
0.000140707
0.000142806
0.000142877
0.000144195
0.000141017
0.000141915
0.00014278
0.000142206
0.000143572
0.000144378
0.000140912
0.000142029
0.000142981
0.000144502
0.000141861
0.00014389
0.000143341
0.000143034
0.000145429
0.000142065
0.000145208
0.000143197
0.000144386
0.00014547
0.000148412
0.000145376
0.000144812
0.00014843
0.000149682
0.000145302
0.000148525
0.000144807
0.000144118
0.000148656
0.000147477
0.000143825
0.00014823
0.000147976
0.000145283
0.000147268
0.000143553
0.000146074
0.000147896
0.000148099
0.000148515
0.000150668
0.000148469
0.000149577
0.000152189
0.000150405
0.000148574
0.000150488
0.000149345
0.000150221
0.000152119
0.000153685
0.000149561
0.00015263
0.000153574
0.000148836
0.000152088
0.000149728
0.000154648
0.000153579
0.000151584
0.000151543
0.000154011
0.000154155
0.000153183
0.000156596
0.00015872
0.000151746
0.000154872
0.000153318
0.000153463
0.000156544
0.000155807
0.000154458
0.000158026
0.000155241
0.000152004
0.0001531
0.000154168
0.000155242
0.000155384
0.000152926
0.000154256
0.000157174
0.000156936
0.000158862
0.000160948
0.000157815
0.000154796
0.000154215
0.000157907
0.000157967
0.000162184
0.000161365
0.000156011
0.000156875
0.000160934
0.000154219
0.000156724
0.000156663
0.00016096
0.00016162
0.00015712
0.000157725
0.000158427
0.000162325
0.000159052
0.000163825
0.000164975
0.000155196
0.000160479
0.000162718
0.000161275
0.000162398
0.000161666
0.000161928
0.000166211
0.000163285
0.000156638
0.000157568
0.000162199
0.000162067
0.000162032
0.000158044
0.000158496
0.000161461
0.000164426
0.00016594
0.000167666
0.000168278
0.000160781
0.000161413
0.00016301
0.000163772
0.000167858
0.000169674
0.000164702
0.000168126
0.000169934
0.000158644
0.000163109
0.000163398
0.000170004
0.000169909
0.000163111
0.000162005
0.000164454
0.000168463
0.000169057
0.000171454
0.000171849
0.000161574
0.000164112
0.000168925
0.000170289
0.000172172
0.000170633
0.00017064
0.000170408
0.000170007
0.000163298
0.000163159
0.000170974
0.000170377
0.000170708
0.000162869
0.000165114
0.000166722
0.000172957
0.000172944
0.000175376
0.000174255
0.000164734
0.000165992
0.000173619
0.000172111
0.000176005
0.000175799
0.000169874
0.000175336
0.000176064
0.000163498
0.00016689
0.000170452
0.000175606
0.000175909
0.000167461
0.000166605
0.000167931
0.000175294
0.000174169
0.00017716
0.000177174
0.000165862
0.00016796
0.000175896
0.000175927
0.000175633
0.000176734
0.000177066
0.000175991
0.000177166
0.000166961
0.000168217
0.000176938
0.000177137
0.000177117
0.000167999
0.000169098
0.000173028
0.000179423
0.000179484
0.000184061
0.000184306
0.000169198
0.000173363
0.000177863
0.000178824
0.000183698
0.000183674
0.000178025
0.000184245
0.000184036
0.000169231
0.000172887
0.000178111
0.000183882
0.000184075
0.000173208
0.000172958
0.000170217
0.000184467
0.000184724
0.000183423
0.00018371
0.000173324
0.000170688
0.000184183
0.000184059
0.000183406
0.000183139
0.000184704
0.000184255
0.00018422
0.000172825
0.000170122
0.000184744
0.000183499
0.000184265
0.000170945
0.000169588
0.00017513
0.000182754
0.000183007
0.000184551
0.000183971
0.000170085
0.000174613
0.00018271
0.000182371
0.000184998
0.000185112
0.000183612
0.000184248
0.000183454
0.000169485
0.000175223
0.000183657
0.000184486
0.000183329
0.000173806
0.000177533
0.000185558
0.000189565
0.00018898
0.000199255
0.000199028
0.000177059
0.000185417
0.000189961
0.000190102
0.000199456
0.000199569
0.000188317
0.000199119
0.000198932
0.000177642
0.000185754
0.00018816
0.000199409
0.000198893
0.000185239
0.000186051
0.000185473
0.000201131
0.000200934
0.000204873
0.000204882
0.000185941
0.000185636
0.000201319
0.000201455
0.000204996
0.000205058
0.000200906
0.000205021
0.000205263
0.000186248
0.000185553
0.00020088
0.000205157
0.000205278
0.000186142
0.000183431
0.000170232
0.000201888
0.000202103
0.000187098
0.000187189
0.000183603
0.000170276
0.00020188
0.000201769
0.000187012
0.000186845
0.000202877
0.000187114
0.000187347
0.000183462
0.000170089
0.000202967
0.000187026
0.000187435
0.000170419
0.000168645
0.000162842
0.000183167
0.000183226
0.000176678
0.000176711
0.000168667
0.0001628
0.000183071
0.000182904
0.000176581
0.000176429
0.000183218
0.000176525
0.000176449
0.000168489
0.00016268
0.000183298
0.000176445
0.000176508
0.000162593
0.000163192
0.000175039
0.000174959
0.000174982
0.000186537
0.000186527
0.000163136
0.000175019
0.000174871
0.000174729
0.000186579
0.000186578
0.000174665
0.00018645
0.000186107
0.000163049
0.000175026
0.000174713
0.000186414
0.000186055
0.000174742
0.000177427
0.000189086
0.000191821
0.000191834
0.000206378
0.000206441
0.000177427
0.000189152
0.00019187
0.00019189
0.000206433
0.000206493
0.000191521
0.000206485
0.00020637
0.000177437
0.000189159
0.000191478
0.000206464
0.000206348
0.000189083
0.000191301
0.000204523
0.00021139
0.00021146
0.000226421
0.000226484
0.000191371
0.000204591
0.000211444
0.000211504
0.000226461
0.000226494
0.000211444
0.000226561
0.000226571
0.000191373
0.000204575
0.000211428
0.000226536
0.000226574
0.000204628
0.000206341
0.000215621
0.000230662
0.000230717
0.000239909
0.000239956
0.000206406
0.000215666
0.000230697
0.000230716
0.00023994
0.000239934
0.000230823
0.000240038
0.000240089
0.000206388
0.000215637
0.000230831
0.000240011
0.000240102
0.000215742
0.00021462
0.000200387
0.000242863
0.000242903
0.000229492
0.000229458
0.000214644
0.00020038
0.00024289
0.000242874
0.000229483
0.000229392
0.000243037
0.000229503
0.000229524
0.000214613
0.000200353
0.000243053
0.000229499
0.000229569
0.000200416
0.000196022
0.000177702
0.000221092
0.000221059
0.000198601
0.000198574
0.000196016
0.000177695
0.000221085
0.000221006
0.000198598
0.000198553
0.000221109
0.000198606
0.000198593
0.000195991
0.000177688
0.00022115
0.000198606
0.000198623
0.000177702
0.000175204
0.000167027
0.000192874
0.000192849
0.000182532
0.000182517
0.000175199
0.000167029
0.000192872
0.000192837
0.000182532
0.000182515
0.000192864
0.00018254
0.000182525
0.000175193
0.000167025
0.00019289
0.000182538
0.00018254
0.000167026
0.000166593
0.000168567
0.000181198
0.000181185
0.000180847
0.000180841
0.000166595
0.000168573
0.000181198
0.000181184
0.000180849
0.000180839
0.000181192
0.00018086
0.000180847
0.000166591
0.000168566
0.000181204
0.000180854
0.000180852
0.000168567
0.000169922
0.000177848
0.000183806
0.00018381
0.000194711
0.000194714
0.000169929
0.000177858
0.000183811
0.000183804
0.00019472
0.000194703
0.000183811
0.000194736
0.000194714
0.000169921
0.000177846
0.000183811
0.000194726
0.000194722
0.000177848
0.000179087
0.000184216
0.000197804
0.000197806
0.00020479
0.00020479
0.000179097
0.000184225
0.000197814
0.000197794
0.000204804
0.000204777
0.000197807
0.000204819
0.000204795
0.000179085
0.000184213
0.000197817
0.00020481
0.000204808
0.000184218
0.00018476
0.000186986
0.000206368
0.000206368
0.000209312
0.00020931
0.000184769
0.000186993
0.000206384
0.000206355
0.00020933
0.000209298
0.000206374
0.000209343
0.000209319
0.000184757
0.000186981
0.000206389
0.000209335
0.000209336
0.000186988
0.000187114
0.00018795
0.00020988
0.000209878
0.000210887
0.000210884
0.000187121
0.000187959
0.000209898
0.000209866
0.000210904
0.000210873
0.000209887
0.000210921
0.000210894
0.000187109
0.000187946
0.000209904
0.000210911
0.000210912
0.000187952
0.000187914
0.000188279
0.000211091
0.000211088
0.000211409
0.000211406
0.000187922
0.000188287
0.000211109
0.000211077
0.000211426
0.000211394
0.000211098
0.000211442
0.000211416
0.00018791
0.000188274
0.000211116
0.000211433
0.000211434
0.000188281
0.000188162
0.00018838
0.000211455
0.000211452
0.000211506
0.000211503
0.00018817
0.000188389
0.000211473
0.000211441
0.000211524
0.000211491
0.000211462
0.000211539
0.000211513
0.000188157
0.000188375
0.000211481
0.00021153
0.000211532
0.000188383
0.00018824
0.000188332
0.000211503
0.0002115
0.00021142
0.000211418
0.000188248
0.00018834
0.00021152
0.000211487
0.000211439
0.000211406
0.000211509
0.000211454
0.000211428
0.000188235
0.000188326
0.000211528
0.000211445
0.000211446
0.000188334
0.000188181
0.000188269
0.000211407
0.000211404
0.0002114
0.000211397
0.000188189
0.000188278
0.000211425
0.000211392
0.000211418
0.000211386
0.000211414
0.000211435
0.000211407
0.000188176
0.000188265
0.000211432
0.000211424
0.000211425
0.000188271
0.000188146
0.000188393
0.000211425
0.000211422
0.000211445
0.000211443
0.000188156
0.000188401
0.000211443
0.00021141
0.000211464
0.00021143
0.000211431
0.000211479
0.000211452
0.000188142
0.000188387
0.000211449
0.000211469
0.00021147
0.000188394
0.000188249
0.000188282
0.000211441
0.000211439
0.000211403
0.0002114
0.000188257
0.000188289
0.00021146
0.000211426
0.000211422
0.000211388
0.000211448
0.000211437
0.00021141
0.000188243
0.000188276
0.000211466
0.000211427
0.000211428
0.000188283
0.000188134
0.000188336
0.000211405
0.000211403
0.000211417
0.000211414
0.000188141
0.000188347
0.000211424
0.000211391
0.000211435
0.000211402
0.000211413
0.000211451
0.000211423
0.000188129
0.000188333
0.00021143
0.000211441
0.000211441
0.000188339
0.000188213
0.000188338
0.000211425
0.000211422
0.000211417
0.000211413
0.000188223
0.000188344
0.000211444
0.00021141
0.000211435
0.000211401
0.000211432
0.00021145
0.000211423
0.00018821
0.00018833
0.00021145
0.00021144
0.00021144
0.000188338
0.000188187
0.000188288
0.000211418
0.000211415
0.00021141
0.000211407
0.000188192
0.000188297
0.000211437
0.000211403
0.000211429
0.000211395
0.000211424
0.000211444
0.000211417
0.000188179
0.000188284
0.000211442
0.000211434
0.000211435
0.00018829
0.000188161
0.000188361
0.000211422
0.000211419
0.000211419
0.000211416
0.000188171
0.00018837
0.00021144
0.000211407
0.000211437
0.000211404
0.000211428
0.000211453
0.000211425
0.000188159
0.000188355
0.000211446
0.000211442
0.000211443
0.000188362
0.000188221
0.000188302
0.000211429
0.000211426
0.000211463
0.00021146
0.000188229
0.000188309
0.000211447
0.000211414
0.000211482
0.000211449
0.000211435
0.000211497
0.00021147
0.000188215
0.000188296
0.000211453
0.000211488
0.000211489
0.000188302
0.000188163
0.000189749
0.000211347
0.000211344
0.000213928
0.000213929
0.000188171
0.000189755
0.000211366
0.000211332
0.000213947
0.000213921
0.000211352
0.000213957
0.000213936
0.000188159
0.000189746
0.000211372
0.000213949
0.000213953
0.000189754
0.000191658
0.000212671
0.000212672
0.000191663
0.000212688
0.000212665
0.000235303
0.0002353
0.000235308
0.000212679
0.000191654
0.000212694
2.59159e-05
3.02657e-06
1.57365e-05
1.56858e-05
5.93171e-07
2.36473e-06
1.69193e-06
7.80622e-06
5.90757e-07
2.33662e-06
7.65806e-06
1.42538e-06
2.28067e-06
1.54169e-06
1.73896e-06
1.08928e-06
1.34983e-05
1.04921e-06
1.52853e-05
1.08547e-05
1.30238e-05
1.11243e-06
1.34767e-05
1.02216e-06
1.52597e-05
6.87077e-06
6.96935e-06
6.88541e-06
6.77301e-06
6.75102e-06
6.8492e-06
6.80073e-06
6.29096e-07
5.11694e-07
3.17388e-06
2.17137e-06
6.1738e-07
6.31596e-07
3.13434e-06
1.09897e-05
1.31988e-05
6.93046e-07
2.83525e-06
3.34083e-07
1.99023e-06
6.66167e-07
2.79617e-06
4.38218e-07
1.50943e-06
1.50113e-06
2.24632e-06
1.71577e-06
1.7034e-06
1.29649e-06
1.85516e-05
1.22582e-06
2.09986e-05
1.71086e-05
1.93156e-05
1.34323e-06
1.85192e-05
1.20481e-06
2.10107e-05
6.77727e-06
6.87731e-06
6.84039e-06
6.89793e-06
6.87315e-06