/*--------------------------------*- C++ -*----------------------------------*\
| =========                 |                                                 |
| \\      /  F ield         | OpenFOAM: The Open Source CFD Toolbox           |
|  \\    /   O peration     | Version:  v1906                                 |
|   \\  /    A nd           | Web:      www.OpenFOAM.com                      |
|    \\/     M anipulation  |                                                 |
\*---------------------------------------------------------------------------*/
FoamFile
{
    version     2.0;
    format      ascii;
    class       volScalarField;
    location    "312.5";
    object      p;
}
// * * * * * * * * * * * * * * * * * * * * * * * * * * * * * * * * * * * * * //

dimensions      [0 2 -2 0 0 0 0];


internalField   nonuniform List<scalar> 
171728
(
0.00352197
0.00352092
0.00352087
0.00352162
0.00348643
0.00348503
0.00348492
0.00348785
0.00344825
0.00344631
0.00344629
0.00344861
0.00340409
0.00340239
0.00340242
0.00340465
0.00335581
0.00335433
0.00335436
0.00335669
0.003307
0.0033056
0.00330563
0.003308
0.003259
0.00325773
0.00325774
0.00326011
0.00321173
0.00321061
0.00321061
0.00321298
0.00316531
0.00316429
0.00316433
0.00316669
0.00312002
0.00311914
0.00311911
0.00312152
0.00307563
0.00307486
0.00307485
0.00307722
0.00303194
0.0030313
0.0030313
0.00303369
0.00298885
0.00298832
0.00298831
0.00299067
0.00294614
0.00294568
0.00294568
0.00294804
0.00290375
0.0029033
0.00290335
0.00290572
0.00286171
0.00286128
0.00286137
0.00286378
0.00281999
0.00281968
0.00281961
0.002822
0.00277864
0.0027785
0.00277836
0.00278055
0.00273764
0.00273746
0.00273753
0.00273961
0.00269698
0.0026968
0.00269686
0.0026989
0.00265667
0.00265665
0.00265656
0.00265847
0.00261668
0.00261668
0.00261648
0.00261838
0.00257693
0.00257683
0.00257683
0.00257859
0.00253746
0.00253751
0.00253745
0.00253923
0.00249825
0.0024984
0.0024983
0.00250014
0.00245924
0.00245947
0.00245954
0.00246112
0.00242048
0.00242067
0.00242067
0.00242267
0.00238197
0.00238215
0.00238219
0.00238423
0.00234364
0.002344
0.00234384
0.00234568
0.00230544
0.00230568
0.00230575
0.00230798
0.00226748
0.00226791
0.00226794
0.00226973
0.00222973
0.00223006
0.00223004
0.00223196
0.002192
0.00219244
0.00219243
0.00219447
0.00215455
0.00215495
0.00215497
0.00215681
0.00211703
0.00211752
0.00211745
0.00211946
0.00207997
0.0020803
0.00208027
0.00208218
0.00204268
0.00204301
0.00204316
0.002045
0.00200593
0.0020064
0.0020061
0.00200828
0.00196889
0.0019691
0.00196924
0.00197098
0.00193229
0.00193228
0.00193249
0.00193457
0.00189561
0.00189599
0.00189585
0.00189783
0.00185942
0.00185935
0.0018594
0.00186134
0.00182293
0.00182309
0.0018231
0.00182513
0.00178691
0.0017867
0.00178673
0.0017888
0.00175089
0.0017511
0.0017509
0.00175289
0.00171509
0.00171475
0.00171508
0.0017171
0.00167946
0.00167921
0.001679
0.00168109
0.00164353
0.00164364
0.0016436
0.00164571
0.00160836
0.00160801
0.00160811
0.00161007
0.00157279
0.0015725
0.00157248
0.00157455
0.00153749
0.00153735
0.0015373
0.0015393
0.00150219
0.00150194
0.00150198
0.00150405
0.00146742
0.00146708
0.00146703
0.001469
0.0014322
0.00143193
0.00143194
0.00143395
0.00139744
0.00139711
0.00139712
0.00139912
0.00136253
0.0013623
0.00136227
0.00136425
0.00132788
0.00132749
0.00132751
0.00132943
0.00129312
0.00129284
0.00129288
0.00129486
0.00125838
0.00125832
0.00125819
0.00126013
0.00122401
0.00122353
0.00122377
0.00122564
0.00118947
0.00118925
0.0011891
0.001191
0.001155
0.00115481
0.00115488
0.00115687
0.00112056
0.00112043
0.0011204
0.00112224
0.00108656
0.00108626
0.00108623
0.00108816
0.00105205
0.00105177
0.00105181
0.00105365
0.00101834
0.00101832
0.00101837
0.00102021
0.000984658
0.000984229
0.000984175
0.000986086
0.000949392
0.000949077
0.000949061
0.000950923
0.000913771
0.000913844
0.000913852
0.000915924
0.000879345
0.000879726
0.000879733
0.000881823
0.000846554
0.000846758
0.000846766
0.000848693
0.000814873
0.000814074
0.000814074
0.00081566
0.00078259
0.000782022
0.00078202
0.000783649
0.000747485
0.000747125
0.000747125
0.000749034
0.000708564
0.000708235
0.000708233
0.000710406
0.000667563
0.000668529
0.000668528
0.000671134
0.000629148
0.000629854
0.000629854
0.000632311
0.000593838
0.000593902
0.000593905
0.000595915
0.000561298
0.00056092
0.000560922
0.00056254
0.000531403
0.000531063
0.000531066
0.000532565
0.000501977
0.000501845
0.000501838
0.000503493
0.00046974
0.000469663
0.000469664
0.000471522
0.000435104
0.000435059
0.000435059
0.000437051
0.000399303
0.000399276
0.000399276
0.00040133
0.000363017
0.000362995
0.000362995
0.000365076
0.000326551
0.000326527
0.000326527
0.000328616
0.000290032
0.000290006
0.000290006
0.000292097
0.000253487
0.00025346
0.00025346
0.000255551
0.000216939
0.000216912
0.000216912
0.000219002
0.00018039
0.000180365
0.000180365
0.000182451
0.00014384
0.000143814
0.000143814
0.000145892
0.000107286
0.000107266
0.000107265
0.000109329
7.07355e-05
7.0707e-05
7.07056e-05
7.2735e-05
3.4944e-05
3.43713e-05
3.43681e-05
3.62488e-05
6.20759e-06
7.1186e-06
7.11761e-06
5.37837e-06
0.00352638
0.00352396
0.00352393
0.00352638
0.00352395
0.00352395
0.00353033
0.00353033
0.00353032
0.00353031
0.00352393
0.00352394
0.00352637
0.00352395
0.0035239
0.00352636
0.00352161
0.00349257
0.00352091
0.00352093
0.0034944
0.00349439
0.00352163
0.00349258
0.00352089
0.00352089
0.00349441
0.00349442
0.00352091
0.00349441
0.00349442
0.0035216
0.00349257
0.0035209
0.00349445
0.00349439
0.00349258
0.00348785
0.00345405
0.00348505
0.00348507
0.00345627
0.00345622
0.00348785
0.00345407
0.00348502
0.00348498
0.00345629
0.00345632
0.00348503
0.00345628
0.00345629
0.00348782
0.00345407
0.00348505
0.00345636
0.00345624
0.00345408
0.00344858
0.00341082
0.00344631
0.00344633
0.00341387
0.00341389
0.0034486
0.00341082
0.0034463
0.00344629
0.00341389
0.00341388
0.00344633
0.00341392
0.00341394
0.00344859
0.00341082
0.00344635
0.0034139
0.0034139
0.00341084
0.00340465
0.00336315
0.00340244
0.00340239
0.00336648
0.00336645
0.00340463
0.00336317
0.00340242
0.00340242
0.00336649
0.00336651
0.00340239
0.00336649
0.0033665
0.00340465
0.00336315
0.00340242
0.00336653
0.00336651
0.00336317
0.00335668
0.00331442
0.00335434
0.00335432
0.00331773
0.0033177
0.00335669
0.00331443
0.00335434
0.00335436
0.00331773
0.00331773
0.00335438
0.00331772
0.00331774
0.00335668
0.00331443
0.00335432
0.00331772
0.00331773
0.00331443
0.003308
0.00326639
0.0033056
0.0033056
0.00326964
0.00326962
0.003308
0.0032664
0.0033056
0.0033056
0.00326962
0.00326964
0.00330555
0.00326964
0.00326957
0.003308
0.0032664
0.00330561
0.00326964
0.00326962
0.00326641
0.0032601
0.00321918
0.00325774
0.00325773
0.00322233
0.00322234
0.0032601
0.00321916
0.00325775
0.00325773
0.00322233
0.00322234
0.00325779
0.00322234
0.00322235
0.0032601
0.00321918
0.00325775
0.00322236
0.00322234
0.00321916
0.003213
0.00317275
0.00321063
0.00321061
0.00317576
0.00317578
0.00321297
0.00317275
0.00321062
0.00321062
0.00317577
0.00317577
0.0032107
0.00317578
0.00317579
0.00321299
0.00317276
0.00321062
0.00317577
0.00317577
0.00317273
0.00316671
0.0031274
0.00316431
0.00316429
0.00313032
0.00313032
0.0031667
0.00312742
0.00316432
0.00316432
0.00313032
0.00313034
0.00316437
0.00313031
0.00313028
0.00316673
0.00312742
0.00316431
0.00313037
0.00313032
0.00312741
0.00312152
0.00308301
0.00311914
0.00311914
0.00308586
0.00308585
0.00312152
0.00308301
0.00311917
0.00311915
0.00308587
0.00308585
0.00311915
0.00308584
0.00308582
0.00312152
0.003083
0.00311912
0.00308583
0.00308587
0.00308302
0.00307723
0.00303934
0.00307482
0.00307486
0.00304209
0.00304207
0.00307724
0.00303934
0.00307484
0.00307485
0.0030421
0.00304211
0.00307482
0.00304208
0.00304211
0.00307724
0.00303934
0.00307485
0.00304207
0.00304209
0.00303936
0.00303366
0.00299622
0.00303125
0.0030313
0.00299894
0.00299899
0.00303368
0.00299627
0.00303126
0.00303126
0.00299895
0.00299897
0.00303132
0.00299899
0.00299898
0.00303367
0.00299625
0.00303132
0.00299897
0.002999
0.00299626
0.00299064
0.00295356
0.00298829
0.00298832
0.00295634
0.00295634
0.00299066
0.00295356
0.00298828
0.00298828
0.00295629
0.00295631
0.00298832
0.00295635
0.00295634
0.00299066
0.00295355
0.00298836
0.00295633
0.00295637
0.00295358
0.00294802
0.0029112
0.00294568
0.00294568
0.00291401
0.00291399
0.00294803
0.00291122
0.00294568
0.00294563
0.00291403
0.00291398
0.00294573
0.00291398
0.00291399
0.00294803
0.00291123
0.00294573
0.00291394
0.00291399
0.0029112
0.00290568
0.0028692
0.00290332
0.00290331
0.00287194
0.00287191
0.00290568
0.00286914
0.00290333
0.00290331
0.00287196
0.00287188
0.00290345
0.00287191
0.00287188
0.00290573
0.00286912
0.00290345
0.00287182
0.0028719
0.00286917
0.00286373
0.0028274
0.00286141
0.00286128
0.00283016
0.00283019
0.00286366
0.0028274
0.00286142
0.00286139
0.00283016
0.00283013
0.00286146
0.00283018
0.00282997
0.0028637
0.00282732
0.00286149
0.00283008
0.00282997
0.00282736
0.00282201
0.00278595
0.00281973
0.00281969
0.00278875
0.00278878
0.002822
0.00278601
0.00281973
0.00281968
0.00278873
0.00278879
0.00281974
0.00278879
0.0027887
0.00282194
0.00278597
0.00281971
0.00278886
0.0027887
0.00278585
0.00278064
0.00274482
0.00277848
0.0027785
0.00274769
0.00274755
0.00278071
0.00274482
0.00277848
0.00277839
0.00274769
0.00274771
0.00277834
0.00274756
0.00274771
0.00278059
0.00274477
0.00277832
0.00274774
0.00274769
0.00274483
0.00273962
0.00270409
0.00273756
0.00273744
0.00270694
0.00270692
0.00273959
0.00270398
0.00273756
0.00273741
0.00270695
0.002707
0.0027375
0.00270695
0.00270692
0.00273955
0.00270406
0.00273754
0.00270699
0.00270691
0.00270409
0.00269893
0.00266357
0.00269691
0.00269683
0.00266652
0.00266671
0.00269882
0.00266346
0.00269692
0.00269691
0.00266651
0.00266661
0.00269681
0.00266671
0.00266666
0.00269887
0.00266357
0.00269682
0.00266657
0.00266666
0.00266361
0.00265844
0.0026234
0.00265656
0.00265665
0.00262667
0.00262659
0.00265844
0.00262341
0.00265657
0.00265666
0.00262666
0.00262649
0.00265656
0.00262658
0.00262651
0.00265843
0.00262354
0.00265658
0.0026264
0.00262653
0.00262352
0.00261842
0.00258356
0.00261668
0.00261668
0.00258677
0.00258677
0.00261839
0.00258362
0.00261672
0.00261657
0.00258679
0.00258686
0.00261659
0.00258678
0.00258673
0.00261831
0.0025837
0.00261659
0.00258669
0.00258671
0.00258369
0.00257868
0.00254408
0.00257703
0.00257683
0.00254721
0.00254744
0.00257852
0.00254429
0.00257709
0.00257691
0.00254725
0.00254733
0.00257688
0.00254745
0.0025473
0.00257861
0.00254426
0.00257685
0.00254722
0.00254727
0.00254426
0.00253907
0.00250501
0.00253746
0.0025375
0.00250804
0.00250815
0.00253926
0.00250505
0.00253751
0.00253751
0.00250806
0.00250816
0.00253751
0.00250815
0.00250807
0.00253924
0.00250509
0.00253749
0.00250811
0.00250805
0.00250509
0.00249992
0.00246644
0.00249826
0.00249841
0.00246919
0.00246912
0.00250016
0.00246608
0.00249826
0.00249831
0.00246919
0.00246921
0.00249833
0.00246915
0.00246911
0.00250002
0.00246632
0.00249834
0.00246918
0.00246908
0.0024661
0.00246137
0.00242725
0.00245946
0.00245947
0.00243029
0.00243026
0.00246123
0.00242727
0.00245943
0.00245954
0.00243031
0.00243028
0.00245936
0.00243028
0.00243044
0.00246146
0.00242719
0.00245938
0.00243025
0.0024304
0.00242765
0.00242251
0.00238914
0.00242079
0.00242067
0.00239175
0.0023918
0.00242233
0.00238927
0.00242073
0.00242066
0.00239177
0.00239184
0.00242071
0.00239181
0.00239183
0.00242226
0.0023893
0.0024207
0.00239178
0.00239181
0.00238903
0.0023841
0.00235095
0.00238219
0.00238212
0.00235345
0.00235352
0.00238415
0.00235122
0.00238215
0.00238217
0.0023535
0.00235351
0.00238226
0.00235352
0.00235342
0.00238431
0.0023507
0.00238224
0.00235342
0.0023534
0.00235064
0.00234602
0.00231257
0.00234388
0.00234398
0.00231532
0.0023152
0.00234645
0.00231253
0.00234388
0.00234393
0.00231533
0.00231529
0.00234393
0.00231519
0.00231531
0.0023458
0.00231276
0.00234388
0.00231534
0.00231535
0.00231294
0.00230773
0.00227471
0.00230576
0.00230566
0.00227731
0.00227741
0.00230742
0.00227498
0.00230579
0.00230579
0.00227731
0.00227734
0.00230571
0.0022774
0.00227736
0.00230782
0.00227467
0.00230573
0.00227739
0.00227737
0.00227452
0.00226974
0.00223692
0.00226784
0.00226791
0.00223957
0.00223948
0.00227022
0.00223684
0.00226785
0.00226788
0.00223953
0.00223953
0.0022679
0.00223946
0.00223952
0.00226975
0.00223709
0.00226792
0.00223943
0.0022395
0.00223695
0.00223204
0.00219942
0.00223018
0.00223009
0.00220184
0.00220186
0.00223186
0.00219932
0.00223014
0.00223011
0.00220187
0.00220181
0.00223008
0.00220188
0.00220187
0.00223218
0.00219925
0.00223006
0.00220187
0.00220191
0.00219934
0.00219449
0.00216158
0.00219243
0.00219244
0.0021643
0.00216429
0.00219444
0.0021617
0.00219243
0.00219238
0.00216432
0.00216442
0.00219247
0.00216428
0.00216424
0.00219436
0.00216182
0.0021925
0.00216435
0.00216423
0.00216172
0.00215671
0.00212434
0.00215493
0.00215494
0.00212682
0.00212688
0.00215681
0.00212433
0.00215496
0.00215505
0.0021268
0.00212677
0.0021549
0.00212689
0.00212692
0.00215689
0.0021243
0.00215489
0.00212683
0.00212698
0.00212432
0.00211943
0.00208704
0.00211747
0.0021175
0.00208964
0.0020897
0.00211942
0.00208717
0.00211746
0.00211737
0.00208962
0.00208955
0.00211756
0.00208964
0.00208953
0.00211945
0.00208703
0.00211761
0.00208951
0.00208949
0.00208706
0.00208214
0.00204992
0.00208034
0.00208036
0.00205236
0.00205222
0.00208223
0.00204975
0.00208033
0.00208033
0.00205239
0.00205245
0.00208025
0.00205227
0.00205238
0.00208217
0.00204984
0.00208021
0.00205246
0.00205237
0.00204983
0.00204506
0.00201285
0.00204309
0.00204296
0.00201535
0.00201554
0.00204493
0.0020132
0.00204311
0.00204309
0.00201533
0.00201531
0.00204311
0.00201555
0.00201547
0.00204496
0.00201295
0.00204311
0.0020153
0.00201549
0.00201313
0.00200799
0.00197621
0.00200612
0.00200643
0.00197854
0.00197853
0.00200839
0.00197585
0.0020061
0.00200615
0.00197853
0.00197849
0.00200627
0.00197851
0.00197839
0.00200812
0.001976
0.00200628
0.00197848
0.00197837
0.00197586
0.00197134
0.00193913
0.00196936
0.00196909
0.00194157
0.00194137
0.00197092
0.00193908
0.00196935
0.00196922
0.0019416
0.00194164
0.00196911
0.00194136
0.0019416
0.00197111
0.00193935
0.00196909
0.00194162
0.00194161
0.00193934
0.00193428
0.00190272
0.00193232
0.00193229
0.00190497
0.00190511
0.0019343
0.00190296
0.00193235
0.00193253
0.00190494
0.001905
0.0019325
0.00190512
0.00190506
0.00193455
0.00190261
0.00193252
0.00190504
0.00190506
0.00190273
0.00189791
0.00186616
0.00189593
0.00189599
0.00186848
0.00186849
0.00189813
0.00186612
0.0018959
0.00189581
0.00186853
0.00186848
0.00189591
0.00186848
0.00186847
0.00189772
0.00186625
0.0018959
0.00186847
0.00186847
0.00186616
0.00186131
0.00182995
0.0018593
0.00185935
0.00183212
0.00183219
0.00186131
0.00183
0.00185935
0.00185942
0.0018321
0.00183214
0.00185933
0.00183221
0.00183208
0.00186144
0.00182994
0.00185933
0.00183214
0.00183208
0.00182991
0.00182517
0.00179361
0.00182312
0.00182308
0.00179587
0.00179568
0.00182514
0.00179348
0.0018231
0.0018231
0.00179586
0.00179585
0.00182309
0.00179567
0.00179591
0.00182514
0.00179361
0.00182309
0.00179585
0.00179592
0.00179366
0.00178879
0.00175772
0.00178676
0.00178671
0.00175981
0.00176003
0.00178874
0.00175794
0.00178677
0.00178674
0.00175981
0.00175977
0.00178677
0.00176004
0.00175972
0.00178878
0.00175766
0.00178678
0.00175978
0.00175972
0.00175761
0.00175298
0.00172184
0.00175093
0.0017511
0.00172403
0.00172387
0.00175317
0.00172163
0.00175092
0.00175089
0.00172403
0.00172412
0.00175085
0.00172386
0.0017241
0.00175293
0.00172199
0.00175083
0.00172413
0.00172407
0.00172194
0.00171701
0.00168586
0.00171499
0.00171474
0.00168795
0.00168801
0.00171682
0.00168592
0.00171501
0.00171508
0.00168799
0.00168792
0.00171506
0.00168802
0.00168794
0.00171713
0.00168579
0.00171506
0.00168792
0.00168799
0.00168583
0.00168113
0.0016505
0.00167908
0.00167917
0.00165253
0.00165256
0.00168118
0.00165055
0.00167909
0.001679
0.00165249
0.00165246
0.00167902
0.00165256
0.00165248
0.00168106
0.00165043
0.00167906
0.00165245
0.00165245
0.00165045
0.00164575
0.00161475
0.00164365
0.00164364
0.00161693
0.00161699
0.00164579
0.00161477
0.00164361
0.00164362
0.00161695
0.00161703
0.00164363
0.00161696
0.00161702
0.00164569
0.00161488
0.0016436
0.00161706
0.00161703
0.00161486
0.00160998
0.00157936
0.00160794
0.00160803
0.00158134
0.00158123
0.00160999
0.00157927
0.00160798
0.00160806
0.00158139
0.00158134
0.00160808
0.00158129
0.00158128
0.00161009
0.00157929
0.00160809
0.0015813
0.0015813
0.00157928
0.00157462
0.00154398
0.00157259
0.00157245
0.0015461
0.00154621
0.00157455
0.00154409
0.00157261
0.00157253
0.00154601
0.00154604
0.00157246
0.00154618
0.0015461
0.00157455
0.00154403
0.0015725
0.00154607
0.00154608
0.00154403
0.00153924
0.00150883
0.0015372
0.00153739
0.0015108
0.00151069
0.00153935
0.00150873
0.00153712
0.00153724
0.00151086
0.00151088
0.00153731
0.00151069
0.0015108
0.00153931
0.00150878
0.00153726
0.00151085
0.00151084
0.00150878
0.00150412
0.00147366
0.00150209
0.00150197
0.00147579
0.00147586
0.00150403
0.00147375
0.00150216
0.00150205
0.00147573
0.0014757
0.00150198
0.00147586
0.00147575
0.00150406
0.0014737
0.00150203
0.0014757
0.00147572
0.0014737
0.00146893
0.00143867
0.00146691
0.00146702
0.00144066
0.00144059
0.00146902
0.00143864
0.00146688
0.00146698
0.00144067
0.00144075
0.00146703
0.00144067
0.00144072
0.001469
0.00143868
0.00146697
0.00144079
0.00144072
0.00143867
0.00143399
0.00140382
0.00143202
0.00143194
0.0014059
0.00140592
0.00143395
0.0014038
0.00143201
0.00143194
0.00140589
0.00140577
0.00143194
0.00140583
0.00140583
0.00143395
0.00140377
0.00143194
0.00140572
0.00140581
0.00140379
0.0013991
0.0013689
0.00139708
0.00139711
0.00137091
0.00137087
0.00139909
0.00136892
0.00139711
0.00139713
0.00137094
0.00137107
0.00139714
0.00137096
0.00137097
0.00139911
0.00136898
0.00139715
0.00137112
0.00137103
0.00136895
0.00136422
0.00133422
0.00136229
0.00136227
0.0013363
0.00133638
0.00136425
0.0013342
0.00136227
0.00136225
0.00133626
0.00133617
0.00136228
0.00133626
0.00133617
0.00136423
0.00133413
0.00136228
0.00133611
0.00133614
0.00133411
0.00132953
0.00129944
0.00132753
0.00132759
0.00130147
0.00130134
0.00132947
0.00129939
0.00132757
0.00132757
0.00130152
0.00130157
0.00132748
0.00130141
0.00130156
0.00132948
0.00129951
0.00132749
0.00130161
0.00130161
0.00129953
0.00129475
0.00126476
0.00129283
0.00129275
0.00126686
0.00126703
0.00129476
0.00126498
0.00129282
0.00129282
0.00126674
0.00126675
0.00129293
0.00126706
0.00126687
0.0012948
0.00126475
0.00129292
0.0012668
0.00126677
0.00126481
0.0012601
0.00123033
0.00125818
0.00125834
0.00123229
0.00123221
0.00126025
0.00123015
0.00125813
0.00125817
0.00123242
0.00123246
0.0012582
0.00123215
0.00123233
0.0012601
0.0012304
0.00125815
0.00123244
0.00123246
0.00123031
0.00122567
0.00119579
0.00122369
0.00122359
0.00119787
0.00119783
0.00122549
0.00119578
0.00122381
0.00122379
0.00119783
0.00119776
0.00122369
0.00119781
0.00119769
0.00122571
0.00119568
0.00122382
0.00119769
0.00119768
0.00119565
0.00119112
0.0011613
0.00118926
0.00118924
0.00116338
0.00116336
0.00119113
0.00116138
0.0011892
0.00118915
0.00116334
0.00116338
0.00118911
0.00116346
0.00116353
0.00119102
0.0011614
0.00118905
0.00116346
0.00116348
0.00116151
0.00115663
0.00112698
0.00115473
0.00115474
0.00112898
0.00112904
0.00115671
0.00112699
0.0011547
0.00115477
0.00112895
0.00112897
0.00115496
0.00112897
0.00112892
0.00115674
0.00112694
0.00115494
0.00112896
0.00112894
0.00112689
0.00112236
0.00109283
0.00112047
0.00112052
0.00109487
0.00109485
0.00112236
0.00109279
0.00112045
0.00112044
0.00109492
0.00109487
0.00112035
0.00109488
0.00109483
0.00112232
0.00109281
0.00112036
0.00109483
0.00109483
0.00109282
0.00108813
0.00105828
0.00108622
0.0010862
0.00106031
0.0010603
0.00108811
0.00105827
0.00108628
0.00108624
0.00106032
0.00106034
0.00108627
0.00106031
0.00106034
0.00108814
0.00105831
0.00108626
0.00106035
0.00106034
0.0010583
0.00105364
0.0010248
0.00105178
0.00105177
0.00102669
0.00102667
0.00105363
0.00102475
0.00105179
0.00105181
0.00102669
0.00102671
0.00105178
0.00102663
0.00102661
0.00105366
0.00102479
0.00105178
0.00102667
0.00102661
0.00102471
0.0010203
0.000990745
0.00101839
0.00101836
0.000992942
0.000992975
0.00102025
0.000990815
0.00101839
0.0010184
0.000992899
0.000992891
0.00101831
0.000992993
0.000993022
0.00102029
0.00099075
0.00101831
0.000992955
0.000993023
0.000990862
0.000985967
0.000955679
0.000984159
0.000984206
0.000957826
0.000957852
0.000986038
0.000955692
0.000984117
0.00098411
0.00095783
0.000957832
0.000984268
0.00095785
0.000957855
0.000985975
0.000955677
0.00098427
0.00095783
0.000957855
0.000955696
0.000950913
0.000920709
0.000949064
0.000949083
0.000922625
0.00092262
0.000950919
0.00092068
0.000949073
0.000949073
0.000922638
0.000922634
0.000949078
0.000922609
0.000922589
0.000950906
0.000920697
0.000949077
0.000922608
0.000922587
0.000920644
0.00091599
0.000886435
0.000913869
0.000913856
0.000888171
0.000888156
0.000915958
0.000886414
0.000913882
0.000913878
0.000888184
0.000888176
0.000913819
0.000888142
0.000888134
0.000915977
0.000886428
0.000913817
0.000888153
0.000888133
0.000886403
0.000881848
0.000853131
0.000879739
0.000879725
0.000854899
0.000854891
0.000881832
0.000853135
0.000879752
0.000879744
0.000854902
0.000854904
0.000879717
0.000854902
0.000854906
0.000881846
0.000853144
0.000879714
0.000854911
0.000854905
0.000853145
0.000848672
0.000820039
0.000846751
0.000846746
0.000822167
0.000822174
0.000848678
0.000820044
0.000846752
0.000846754
0.000822162
0.00082217
0.000846767
0.00082217
0.000822194
0.000848685
0.000820041
0.000846767
0.000822171
0.000822196
0.000820054
0.00081565
0.000788084
0.000814075
0.000814082
0.00079017
0.000790171
0.000815653
0.000788078
0.00081407
0.000814077
0.000790167
0.000790165
0.000814089
0.000790162
0.000790159
0.000815651
0.000788074
0.000814092
0.000790159
0.000790161
0.00078807
0.000783661
0.000754013
0.00078203
0.000782029
0.000756249
0.000756247
0.000783657
0.000754012
0.000782028
0.000782024
0.000756248
0.000756244
0.000782016
0.000756244
0.000756236
0.000783653
0.00075401
0.000782018
0.000756243
0.000756237
0.000754003
0.000749044
0.000715852
0.00074713
0.000747128
0.000718261
0.000718256
0.000749042
0.000715858
0.000747129
0.000747127
0.000718257
0.000718255
0.000747119
0.00071826
0.000718253
0.00074904
0.000715849
0.000747119
0.000718256
0.000718254
0.000715853
0.000710408
0.000676503
0.000708236
0.000708233
0.000678377
0.000678377
0.00071041
0.000676505
0.000708234
0.000708234
0.000678377
0.000678379
0.000708231
0.000678379
0.000678379
0.000710407
0.000676503
0.00070823
0.000678378
0.000678378
0.000676504
0.000671132
0.000637468
0.000668526
0.000668527
0.00063932
0.00063932
0.000671132
0.000637469
0.000668527
0.000668527
0.00063932
0.000639321
0.000668529
0.000639322
0.000639323
0.000671131
0.000637468
0.000668529
0.000639321
0.000639322
0.00063747
0.000632309
0.000600659
0.000629853
0.000629854
0.000602603
0.000602603
0.00063231
0.000600659
0.000629854
0.000629854
0.000602604
0.000602602
0.000629856
0.000602605
0.000602605
0.00063231
0.00060066
0.000629855
0.000602606
0.000602603
0.000600659
0.000595916
0.00056691
0.000593903
0.000593902
0.000568938
0.000568941
0.000595915
0.000566911
0.000593903
0.000593902
0.00056894
0.00056894
0.000593902
0.000568937
0.000568936
0.000595917
0.00056691
0.000593901
0.000568941
0.000568942
0.000566911
0.000562538
0.00053644
0.000560921
0.00056092
0.000538232
0.000538231
0.000562538
0.000536439
0.000560922
0.00056092
0.000538233
0.000538233
0.000560919
0.000538231
0.000538231
0.000562536
0.000536441
0.000560922
0.000538233
0.000538232
0.000536439
0.000532566
0.000507597
0.000531065
0.000531064
0.000509391
0.000509356
0.000532564
0.000507596
0.000531065
0.000531066
0.000509355
0.000509354
0.000531064
0.00050939
0.000509392
0.000532568
0.000507589
0.000531065
0.00050935
0.000509355
0.000507596
0.000503494
0.00047606
0.000501847
0.000501842
0.000477992
0.000477992
0.000503493
0.00047606
0.00050184
0.000501841
0.000477992
0.000477992
0.000501846
0.000477991
0.000477992
0.000503491
0.000476061
0.000501841
0.000477992
0.000477992
0.00047606
0.000471522
0.00044184
0.000469664
0.000469664
0.00044386
0.00044386
0.000471521
0.00044184
0.000469664
0.000469665
0.00044386
0.000443861
0.000469664
0.000443859
0.00044386
0.000471522
0.00044184
0.000469664
0.00044386
0.00044386
0.00044184
0.000437052
0.000406227
0.000435059
0.000435059
0.000408286
0.000408286
0.000437051
0.000406228
0.00043506
0.00043506
0.000408285
0.000408286
0.000435059
0.000408285
0.000408285
0.000437052
0.000406227
0.000435059
0.000408285
0.000408285
0.000406227
0.000401331
0.000370017
0.000399276
0.000399276
0.000372091
0.000372091
0.00040133
0.000370017
0.000399276
0.000399276
0.000372091
0.000372091
0.000399276
0.000372091
0.000372091
0.000401331
0.000370017
0.000399276
0.00037209
0.00037209
0.000370017
0.000365076
0.000333573
0.000362995
0.000362995
0.000335651
0.000335651
0.000365076
0.000333573
0.000362995
0.000362995
0.000335651
0.000335651
0.000362995
0.000335651
0.000335651
0.000365076
0.000333572
0.000362995
0.000335651
0.000335651
0.000333572
0.000328616
0.000297058
0.000326527
0.000326527
0.000299138
0.000299138
0.000328616
0.000297058
0.000326527
0.000326527
0.000299138
0.000299138
0.000326527
0.000299138
0.000299138
0.000328616
0.000297057
0.000326526
0.000299138
0.000299138
0.000297057
0.000292097
0.000260516
0.000290006
0.000290006
0.000262596
0.000262596
0.000292097
0.000260516
0.000290006
0.000290006
0.000262596
0.000262596
0.000290006
0.000262596
0.000262596
0.000292097
0.000260515
0.000290006
0.000262596
0.000262596
0.000260515
0.000255551
0.000223966
0.00025346
0.00025346
0.000226046
0.000226046
0.000255551
0.000223966
0.00025346
0.00025346
0.000226046
0.000226046
0.00025346
0.000226046
0.000226046
0.000255551
0.000223966
0.00025346
0.000226046
0.000226046
0.000223966
0.000219001
0.000187421
0.000216912
0.000216912
0.000189499
0.000189499
0.000219001
0.000187421
0.000216912
0.000216912
0.000189499
0.000189499
0.000216913
0.000189499
0.000189499
0.000219002
0.00018742
0.000216912
0.000189499
0.000189499
0.000187421
0.000182451
0.000150869
0.000180365
0.000180365
0.000152945
0.000152945
0.000182451
0.00015087
0.000180365
0.000180365
0.000152945
0.000152945
0.000180365
0.000152945
0.000152945
0.000182451
0.000150869
0.000180365
0.000152945
0.000152945
0.000150869
0.000145892
0.000114325
0.000143814
0.000143814
0.000116396
0.000116396
0.000145892
0.000114325
0.000143813
0.000143813
0.000116396
0.000116396
0.000143814
0.000116396
0.000116396
0.000145892
0.000114325
0.000143814
0.000116396
0.000116396
0.000114325
0.000109329
7.77692e-05
0.000107266
0.000107266
7.98357e-05
7.98355e-05
0.000109329
7.777e-05
0.000107266
0.000107265
7.98351e-05
7.98347e-05
0.000107266
7.98355e-05
7.98347e-05
0.000109329
7.7768e-05
0.000107266
7.98347e-05
7.98348e-05
7.77682e-05
7.2736e-05
4.12571e-05
7.07072e-05
7.07069e-05
4.33203e-05
4.33211e-05
7.27357e-05
4.12584e-05
7.07063e-05
7.07057e-05
4.33187e-05
4.33178e-05
7.07062e-05
4.33198e-05
4.33175e-05
7.27354e-05
4.12544e-05
7.0706e-05
4.33172e-05
4.33161e-05
4.12541e-05
3.62526e-05
8.62084e-06
3.43724e-05
3.4373e-05
1.16411e-05
1.16406e-05
3.62529e-05
8.62078e-06
3.4371e-05
3.4369e-05
1.16421e-05
1.16356e-05
3.43681e-05
1.16409e-05
1.16338e-05
3.62497e-05
8.61732e-06
3.43674e-05
1.16389e-05
1.1639e-05
8.61583e-06
5.38174e-06
7.11803e-06
7.11752e-06
5.3825e-06
7.11834e-06
7.11413e-06
6.20707e-06
6.20677e-06
6.20574e-06
7.11307e-06
5.38032e-06
7.11673e-06
0.00353342
0.00353597
0.00353474
0.00353475
0.00356231
0.00353589
0.00356547
0.00353618
0.00356228
0.00353596
0.00353616
0.00356546
0.00354688
0.00356857
0.00356868
0.00350602
0.00351971
0.00352362
0.00349834
0.00349626
0.00350186
0.00350587
0.00351961
0.0035236
0.00349833
0.00352198
0.00352195
0.00352196
0.00349545
0.00349546
0.00349544
0.00349545
0.00350575
0.00351733
0.00352257
0.00351324
0.00352471
0.00350286
0.00351351
0.00349636
0.00350184
0.0035057
0.00352253
0.00351726
0.00351324
0.00352464
0.00351349
0.00350284
0.00352343
0.00352345
0.0035105
0.00350273
0.00350279
0.00347848
0.00349275
0.00349255
0.00347654
0.00349
0.00347553
0.00347834
0.0034928
0.00349257
0.00347652
0.00348643
0.00348642
0.00348643
0.00345828
0.0034583
0.00345829
0.00345828
0.00347632
0.00349125
0.00348494
0.00347551
0.0034897
0.00347681
0.00347545
0.00348995
0.00347558
0.00347634
0.0034849
0.00349118
0.00347559
0.00348968
0.00347546
0.00347685
0.00349298
0.003493
0.00347401
0.00347719
0.0034772
0.00343616
0.00345079
0.00345173
0.00343484
0.00344973
0.0034339
0.0034361
0.0034508
0.00345163
0.00343483
0.00344826
0.00344826
0.00344824
0.00341567
0.00341568
0.00341567
0.00341567
0.00343489
0.00345041
0.00344629
0.00343584
0.00344939
0.00343535
0.00343585
0.00344969
0.00343392
0.00343488
0.00344632
0.00345038
0.00343588
0.00344941
0.00343584
0.00343534
0.00345113
0.00345112
0.00343318
0.00343511
0.00343514
0.00338976
0.00340622
0.0034077
0.00338836
0.00340544
0.00338779
0.0033898
0.00340617
0.00340757
0.00338833
0.0034041
0.00340408
0.00340408
0.00336803
0.00336804
0.00336803
0.00336802
0.00338894
0.00340605
0.00340235
0.0033906
0.00340545
0.00338904
0.00339061
0.00340548
0.00338781
0.00338894
0.00340235
0.00340607
0.00339064
0.00340546
0.00339064
0.00338908
0.00340625
0.00340627
0.00338732
0.00338845
0.0033885
0.00334067
0.00335786
0.00335925
0.00333946
0.00335748
0.00333915
0.0033407
0.00335786
0.00335924
0.00333948
0.0033558
0.00335581
0.00335579
0.00331915
0.00331915
0.00331915
0.00331914
0.00334031
0.00335787
0.00335432
0.0033421
0.0033575
0.0033402
0.00334208
0.00335744
0.0033392
0.0033403
0.00335434
0.00335789
0.00334209
0.00335751
0.0033421
0.00334023
0.00335788
0.00335793
0.00333875
0.00333966
0.00333961
0.00329168
0.00330894
0.00330997
0.00329082
0.00330861
0.00329056
0.00329165
0.00330893
0.00330999
0.00329081
0.003307
0.003307
0.00330699
0.00327092
0.00327093
0.00327092
0.00327091
0.00329166
0.00330896
0.00330562
0.00329356
0.0033087
0.00329145
0.00329359