/*--------------------------------*- C++ -*----------------------------------*\
| =========                 |                                                 |
| \\      /  F ield         | OpenFOAM: The Open Source CFD Toolbox           |
|  \\    /   O peration     | Version:  v1906                                 |
|   \\  /    A nd           | Web:      www.OpenFOAM.com                      |
|    \\/     M anipulation  |                                                 |
\*---------------------------------------------------------------------------*/
FoamFile
{
    version     2.0;
    format      ascii;
    class       volScalarField;
    location    "125";
    object      epsilon;
}
// * * * * * * * * * * * * * * * * * * * * * * * * * * * * * * * * * * * * * //

dimensions      [0 2 -3 0 0 0 0];


internalField   nonuniform List<scalar> 
171728
(
3.41433e-08
7.59629e-09
6.75646e-09
5.3616e-09
3.43887e-08
7.57991e-09
6.69001e-09
4.86595e-09
3.5478e-08
7.71669e-09
6.71302e-09
4.50153e-09
3.65659e-08
7.97135e-09
6.83599e-09
4.24719e-09
3.76526e-08
8.33265e-09
7.04255e-09
4.10692e-09
3.87458e-08
8.82218e-09
7.32294e-09
4.01294e-09
3.98341e-08
9.46106e-09
7.69633e-09
3.97482e-09
4.09231e-08
1.02515e-08
8.10226e-09
3.99369e-09
4.19954e-08
1.11707e-08
8.57387e-09
4.06512e-09
4.30677e-08
1.21861e-08
9.36936e-09
4.16581e-09
4.41384e-08
1.32379e-08
1.02759e-08
4.37282e-09
4.51812e-08
1.42549e-08
1.1332e-08
4.71554e-09
4.62454e-08
1.50577e-08
1.25498e-08
5.20488e-09
4.72101e-08
1.54904e-08
1.39757e-08
5.85493e-09
4.81136e-08
1.62076e-08
1.56385e-08
6.75323e-09
4.91403e-08
1.78254e-08
1.77322e-08
8.06183e-09
5.04013e-08
2.01467e-08
2.03084e-08
9.98294e-09
5.16821e-08
2.32009e-08
2.36269e-08
1.31444e-08
5.31636e-08
2.74584e-08
2.80228e-08
1.8441e-08
5.47603e-08
3.34081e-08
3.37525e-08
2.70163e-08
5.67808e-08
4.13082e-08
4.16089e-08
4.0143e-08
5.91309e-08
5.15753e-08
5.23232e-08
6.15594e-08
6.23259e-08
6.55275e-08
6.65597e-08
9.19954e-08
6.63674e-08
8.411e-08
8.50762e-08
1.38738e-07
7.21251e-08
1.11679e-07
1.12078e-07
2.05371e-07
8.07235e-08
1.53691e-07
1.54044e-07
2.97634e-07
9.49178e-08
2.13232e-07
2.13586e-07
4.02095e-07
1.15608e-07
2.85797e-07
2.8599e-07
5.05524e-07
1.40101e-07
3.56157e-07
3.56267e-07
5.88518e-07
1.64498e-07
4.11318e-07
4.11409e-07
6.44746e-07
1.82301e-07
4.4293e-07
4.43019e-07
6.72939e-07
1.90899e-07
4.54719e-07
4.54807e-07
6.82138e-07
1.93841e-07
4.58031e-07
4.58115e-07
6.84512e-07
1.9462e-07
4.58803e-07
4.58885e-07
6.85151e-07
1.94787e-07
4.58953e-07
4.59035e-07
6.8524e-07
1.94814e-07
4.58953e-07
4.59036e-07
6.85155e-07
1.94821e-07
4.58959e-07
4.59042e-07
6.85207e-07
1.94824e-07
4.58962e-07
4.59044e-07
6.85179e-07
1.94826e-07
4.58964e-07
4.59046e-07
6.85201e-07
1.94828e-07
4.58966e-07
4.59049e-07
6.85198e-07
1.94831e-07
4.58969e-07
4.59051e-07
6.85199e-07
1.94832e-07
4.58969e-07
4.59053e-07
6.85195e-07
1.94833e-07
4.58971e-07
4.59055e-07
6.85197e-07
1.94833e-07
4.58969e-07
4.59054e-07
6.85199e-07
1.94834e-07
4.58968e-07
4.59053e-07
6.8519e-07
1.94835e-07
4.58971e-07
4.59056e-07
6.85185e-07
1.94835e-07
4.5897e-07
4.59056e-07
6.85216e-07
1.94836e-07
4.58968e-07
4.59054e-07
6.85208e-07
1.94835e-07
4.58969e-07
4.59054e-07
6.85179e-07
1.94835e-07
4.5897e-07
4.59053e-07
6.85214e-07
1.94836e-07
4.58971e-07
4.59053e-07
6.85212e-07
1.94836e-07
4.58967e-07
4.59055e-07
6.85121e-07
1.94836e-07
4.58969e-07
4.59053e-07
6.85064e-07
1.94836e-07
4.58971e-07
4.59051e-07
6.85113e-07
1.94836e-07
4.5897e-07
4.59053e-07
6.85197e-07
1.94837e-07
4.5897e-07
4.59054e-07
6.8527e-07
1.94837e-07
4.5897e-07
4.59053e-07
6.85321e-07
1.94837e-07
4.5897e-07
4.59054e-07
6.85352e-07
1.94837e-07
4.58971e-07
4.59054e-07
6.8536e-07
1.94837e-07
4.58972e-07
4.59054e-07
6.85358e-07
1.94837e-07
4.58972e-07
4.59054e-07
6.85353e-07
1.94837e-07
4.58971e-07
4.59054e-07
6.85346e-07
1.94837e-07
4.58972e-07
4.59054e-07
6.85337e-07
1.94837e-07
4.58972e-07
4.59053e-07
6.8533e-07
1.94838e-07
4.58972e-07
4.59054e-07
6.85324e-07
1.94837e-07
4.58972e-07
4.59054e-07
6.85319e-07
1.94837e-07
4.58972e-07
4.59054e-07
6.8532e-07
1.94837e-07
4.58972e-07
4.59054e-07
6.85327e-07
1.94837e-07
4.58972e-07
4.59054e-07
6.85324e-07
1.94837e-07
4.58971e-07
4.59053e-07
6.85311e-07
1.94837e-07
4.58973e-07
4.59052e-07
6.85311e-07
1.94837e-07
4.58972e-07
4.59053e-07
6.8533e-07
1.94837e-07
4.58972e-07
4.59054e-07
6.85344e-07
1.94837e-07
4.58972e-07
4.59053e-07
6.85342e-07
1.94837e-07
4.58971e-07
4.59052e-07
6.85329e-07
1.94837e-07
4.58971e-07
4.59051e-07
6.85322e-07
1.94837e-07
4.58971e-07
4.5905e-07
6.85327e-07
1.94838e-07
4.5897e-07
4.59051e-07
6.85327e-07
1.94838e-07
4.5897e-07
4.5905e-07
6.85318e-07
1.94838e-07
4.58969e-07
4.5905e-07
6.85315e-07
1.94838e-07
4.58969e-07
4.59049e-07
6.85326e-07
1.94838e-07
4.5897e-07
4.59049e-07
6.85339e-07
1.94838e-07
4.5897e-07
4.5905e-07
6.8534e-07
1.94838e-07
4.58972e-07
4.59051e-07
6.85331e-07
1.94838e-07
4.58973e-07
4.59053e-07
6.85323e-07
1.94839e-07
4.58975e-07
4.59055e-07
6.85323e-07
1.94839e-07
4.58978e-07
4.59057e-07
6.85315e-07
1.94839e-07
4.58981e-07
4.59059e-07
6.85304e-07
1.9484e-07
4.58983e-07
4.59061e-07
6.85312e-07
1.9484e-07
4.58987e-07
4.59065e-07
6.85325e-07
1.9484e-07
4.5899e-07
4.59068e-07
6.85331e-07
1.94841e-07
4.58987e-07
4.59066e-07
6.85322e-07
1.94837e-07
4.58973e-07
4.5905e-07
6.85284e-07
1.94633e-07
4.58847e-07
4.58919e-07
6.84955e-07
1.87281e-07
4.28459e-07
4.28473e-07
6.48824e-07
5.6005e-09
5.57846e-09
5.25043e-09
5.61712e-09
5.71952e-09
6.00821e-09
3.49861e-08
3.50543e-08
3.46572e-08
3.46544e-08
5.99903e-09
4.97541e-09
5.78453e-09
5.77937e-09
5.57167e-09
5.45121e-09
5.54047e-09
5.20786e-09
6.5044e-09
6.28636e-09
6.43295e-09
6.21647e-09
5.53946e-09
5.11055e-09
6.89266e-09
7.2693e-09
6.90968e-09
7.18779e-09
5.87503e-09
7.57143e-09
5.885e-09
5.73078e-09
5.42709e-09
6.5839e-09
6.69413e-09
6.50881e-09
4.94964e-09
5.14371e-09
4.91843e-09
6.42805e-09
6.21392e-09
6.43384e-09
6.26298e-09
5.02167e-09
4.72513e-09
6.93067e-09
7.17986e-09
7.04035e-09
7.17291e-09
5.90138e-09
7.67078e-09
5.99283e-09
5.36173e-09
5.10692e-09
6.50225e-09
6.70069e-09
6.50594e-09
4.56535e-09
4.85782e-09
4.68055e-09
6.45086e-09
6.29795e-09
6.51837e-09
6.44683e-09
4.65683e-09
4.4821e-09
7.0894e-09
7.17818e-09
7.28885e-09
7.23151e-09
6.03611e-09
7.89913e-09
6.19723e-09
5.0444e-09
4.87321e-09
6.52068e-09
6.80084e-09
6.60021e-09
4.29644e-09
4.63686e-09
4.53709e-09
6.55836e-09
6.51405e-09
6.69931e-09
6.74608e-09
4.43463e-09
4.34707e-09
7.36873e-09
7.26126e-09
7.64617e-09
7.38362e-09
6.26515e-09
8.23307e-09
6.49238e-09
4.8266e-09
4.70446e-09
6.6371e-09
6.99126e-09
6.77514e-09
4.14061e-09
4.50115e-09
4.43936e-09
6.75689e-09
6.84453e-09
6.98823e-09
7.16298e-09
4.31295e-09
4.28337e-09
7.74911e-09
7.43876e-09
8.11153e-09
7.61561e-09
6.58137e-09
8.69029e-09
6.87951e-09
4.65885e-09
4.5305e-09
6.83473e-09
7.25534e-09
7.03028e-09
4.03923e-09
4.41308e-09
4.40376e-09
7.06694e-09
7.28374e-09
7.37917e-09
7.70286e-09
4.26127e-09
4.28358e-09
8.24224e-09
7.6901e-09
8.65707e-09
7.9494e-09
6.98979e-09
9.29347e-09
7.36885e-09
4.48901e-09
4.37333e-09
7.10661e-09
7.60028e-09
7.37979e-09
3.99162e-09
4.38609e-09
4.42476e-09
7.4895e-09
7.84647e-09
7.87132e-09
8.34941e-09
4.26715e-09
4.36404e-09
8.80528e-09
8.0421e-09
9.31304e-09
8.38293e-09
7.49786e-09
1.00444e-08
7.94706e-09
4.32953e-09
4.25021e-09
7.47766e-09
8.02247e-09
7.82834e-09
4.00348e-09
4.41084e-09
4.4984e-09
8.01598e-09
8.52543e-09
8.50093e-09
9.09762e-09
4.3519e-09
4.5237e-09
9.48949e-09
8.49857e-09
1.01043e-08
8.92677e-09
8.09998e-09
1.09324e-08
8.61402e-09
4.22744e-09
4.25152e-09
7.95317e-09
8.43507e-09
8.38918e-09
4.0748e-09
4.48832e-09
4.64948e-09
8.67011e-09
9.29626e-09
9.24356e-09
9.95344e-09
4.51597e-09
4.76058e-09
1.03266e-08
9.07736e-09
1.10185e-08
9.56232e-09
8.79969e-09
1.19266e-08
9.36731e-09
4.23965e-09
4.20282e-09
8.55735e-09
9.15213e-09
9.11262e-09
4.17341e-09
4.64271e-09
4.88502e-09
9.45966e-09
1.01934e-08
1.01619e-08
1.09032e-08
4.75621e-09
5.06463e-09
1.12717e-08
9.75e-09
1.20725e-08
1.03355e-08
9.57926e-09
1.29784e-08
1.02427e-08
4.16432e-09
4.15975e-09
9.31669e-09
1.00513e-08
9.9956e-09
4.37312e-09
4.88451e-09
5.26367e-09
1.04236e-08
1.11574e-08
1.12717e-08
1.19665e-08
5.06311e-09
5.4197e-09
1.23586e-08
1.05529e-08
1.32989e-08
1.12832e-08
1.04813e-08
1.40106e-08
1.12648e-08
4.15365e-09
4.46184e-09
1.0242e-08
1.10642e-08
1.10446e-08
4.70493e-09
5.27433e-09
5.77577e-09
1.15554e-08
1.22454e-08
1.25203e-08
1.31799e-08
5.41995e-09
5.78984e-09
1.36265e-08
1.15373e-08
1.46315e-08
1.23845e-08
1.15302e-08
1.49015e-08
1.24264e-08
4.46836e-09
4.91873e-09
1.133e-08
1.22375e-08
1.2259e-08
5.16665e-09
5.79858e-09
6.44042e-09
1.28763e-08
1.35235e-08
1.39939e-08
1.46057e-08
5.79225e-09
6.17671e-09
1.50109e-08
1.26864e-08
1.61446e-08
1.36633e-08
1.27612e-08
1.54179e-08
1.37993e-08
4.94634e-09
5.54006e-09
1.25978e-08
1.35965e-08
1.3675e-08
5.75704e-09
6.55052e-09
7.32172e-09
1.43993e-08
1.50057e-08
1.57212e-08
1.634e-08
6.23331e-09
6.81898e-09
1.65189e-08
1.40408e-08
1.75815e-08
1.52609e-08
1.41703e-08
1.59657e-08
1.54034e-08
5.64667e-09
6.45086e-09
1.40621e-08
1.52209e-08
1.53411e-08
6.59589e-09
7.46553e-09
8.43075e-09
1.61702e-08
1.68303e-08
1.77344e-08
1.85477e-08
6.95124e-09
7.9916e-09
1.78442e-08
1.56997e-08
1.87015e-08
1.7223e-08
1.58437e-08
1.73613e-08
1.73899e-08
6.61993e-09
7.72133e-09
1.58031e-08
1.71906e-08
1.74072e-08
7.81436e-09
8.66105e-09
1.01959e-08
1.83123e-08
1.91484e-08
2.02611e-08
2.1142e-08
8.24118e-09
9.82059e-09
1.89999e-08
1.77355e-08
2.00819e-08
1.94941e-08
1.79532e-08
1.94852e-08
1.98317e-08
7.97351e-09
9.54909e-09
1.79815e-08
1.95885e-08
1.98803e-08
9.58749e-09
1.06199e-08
1.32103e-08
2.10331e-08
2.18883e-08
2.35933e-08
2.41568e-08
1.02268e-08
1.26467e-08
2.05997e-08
2.01993e-08
2.25531e-08
2.24725e-08
2.05807e-08
2.23656e-08
2.30461e-08
9.95374e-09
1.24049e-08
2.06288e-08
2.27319e-08
2.31333e-08
1.2446e-08
1.39325e-08
1.79704e-08
2.45208e-08
2.49954e-08
2.77347e-08
2.78182e-08
1.33217e-08
1.7142e-08
2.33472e-08
2.33277e-08
2.62715e-08
2.63943e-08
2.39589e-08
2.62762e-08
2.72678e-08
1.30985e-08
1.71292e-08
2.40485e-08
2.68066e-08
2.73867e-08
1.72488e-08
1.91491e-08
2.57736e-08
2.89648e-08
2.88072e-08
3.3138e-08
3.21306e-08
1.82434e-08
2.46627e-08
2.74549e-08
2.76038e-08
3.1544e-08
3.16652e-08
2.85281e-08
3.17503e-08
3.27926e-08
1.8304e-08
2.48995e-08
2.86687e-08
3.21751e-08
3.29193e-08
2.50934e-08
2.76875e-08
3.8106e-08
3.47282e-08
3.34841e-08
4.04029e-08
3.85431e-08
2.65528e-08
3.67906e-08
3.31113e-08
3.32077e-08
3.87138e-08
3.87566e-08
3.44604e-08
3.91675e-08
4.01664e-08
2.67901e-08
3.71761e-08
3.46044e-08
3.94345e-08
4.03933e-08
3.71683e-08
4.1127e-08
5.7615e-08
4.26412e-08
4.05908e-08
5.04016e-08
4.7923e-08
3.976e-08
5.63111e-08
4.08797e-08
4.09069e-08
4.83328e-08
4.84003e-08
4.23902e-08
4.87139e-08
5.01966e-08
4.01772e-08
5.68495e-08
4.26011e-08
4.93446e-08
5.0471e-08
5.69104e-08
6.23484e-08
8.76196e-08
5.34068e-08
5.08068e-08
6.41779e-08
6.10392e-08
6.10972e-08
8.62353e-08
5.12003e-08
5.12913e-08
6.1242e-08
6.13638e-08
5.30046e-08
6.16707e-08
6.22843e-08
6.16674e-08
8.69115e-08
5.34417e-08
6.26339e-08
6.33505e-08
8.52957e-08
9.45416e-08
1.30225e-07
6.83055e-08
6.50148e-08
8.1744e-08
7.86939e-08
9.30577e-08
1.29065e-07
6.50976e-08
6.5298e-08
7.83713e-08
7.90401e-08
6.59332e-08
7.89303e-08
7.90842e-08
9.37877e-08
1.3019e-07
6.71076e-08
8.00018e-08
8.01712e-08
1.28867e-07
1.39705e-07
1.91062e-07
8.66797e-08
8.39367e-08
1.05114e-07
1.0336e-07
1.38782e-07
1.91006e-07
8.35234e-08
8.43236e-08
1.02887e-07
1.03759e-07
8.42519e-08
1.03525e-07
1.0356e-07
1.39902e-07
1.91466e-07
8.52443e-08
1.04025e-07
1.04301e-07
1.91247e-07
2.05104e-07
2.79313e-07
1.1304e-07
1.11529e-07
1.42684e-07
1.41624e-07
2.051e-07
2.79134e-07
1.11084e-07
1.11901e-07
1.41304e-07
1.41912e-07
1.11695e-07
1.41757e-07
1.41681e-07
2.05392e-07
2.79169e-07
1.12371e-07
1.42085e-07
1.42136e-07
2.79448e-07
2.9758e-07
3.82546e-07
1.54534e-07
1.53605e-07
1.97152e-07
1.96647e-07
2.97362e-07
3.82261e-07
1.53332e-07
1.53876e-07
1.96473e-07
1.96873e-07
1.53626e-07
1.9661e-07
1.96603e-07
2.97409e-07
3.82528e-07
1.54001e-07
1.96985e-07
1.9675e-07
3.82405e-07
4.02234e-07
4.87051e-07
2.13695e-07
2.13321e-07
2.67569e-07
2.67475e-07
4.01971e-07
4.86939e-07
2.13165e-07
2.13532e-07
2.67327e-07
2.67622e-07
2.13267e-07
2.67314e-07
2.67405e-07
4.02261e-07
4.87206e-07
2.13359e-07
2.67545e-07
2.67394e-07
4.87057e-07
5.05513e-07
5.74062e-07
2.86021e-07
2.8598e-07
3.39673e-07
3.39713e-07
5.05422e-07
5.73999e-07
2.85833e-07
2.86107e-07
3.39558e-07
3.39784e-07
2.85911e-07
3.39507e-07
3.39657e-07
5.05653e-07
5.74162e-07
2.85881e-07
3.39626e-07
3.39589e-07
5.74122e-07
5.88465e-07
6.34934e-07
3.56321e-07
3.56369e-07
3.99712e-07
3.99773e-07
5.88405e-07
6.34865e-07
3.5622e-07
3.56431e-07
3.99628e-07
3.9981e-07
3.56323e-07
3.99562e-07
3.99743e-07
5.88549e-07
6.34998e-07
3.56249e-07
3.99654e-07
3.9966e-07
6.35007e-07
6.44683e-07
6.67651e-07
4.11466e-07
4.11524e-07
4.37444e-07
4.37507e-07
6.44615e-07
6.67579e-07
4.11389e-07
4.11562e-07
4.37368e-07
4.37531e-07
4.11502e-07
4.37297e-07
4.37483e-07
6.44734e-07
6.67698e-07
4.11419e-07
4.37383e-07
4.37404e-07
6.67723e-07
6.72872e-07
6.79495e-07
4.43076e-07
4.43131e-07
4.53085e-07
4.53146e-07
6.72803e-07
6.79424e-07
4.43003e-07
4.43161e-07
4.53014e-07
4.53165e-07
4.43117e-07
4.5294e-07
4.53131e-07
6.72911e-07
6.79539e-07
4.43038e-07
4.53028e-07
4.53053e-07
6.79572e-07
6.82063e-07
6.82525e-07
4.54859e-07
4.54918e-07
4.57716e-07
4.57777e-07
6.81994e-07
6.8245e-07
4.54791e-07
4.54939e-07
4.5765e-07
4.57795e-07
4.54905e-07
4.57576e-07
4.57761e-07
6.82099e-07
6.82562e-07
4.54829e-07
4.57659e-07
4.57687e-07
6.82594e-07
6.84443e-07
6.83333e-07
4.58167e-07
4.58229e-07
4.5884e-07
4.58903e-07
6.84372e-07
6.83256e-07
4.58103e-07
4.58246e-07
4.58775e-07
4.58919e-07
4.58212e-07
4.58702e-07
4.58883e-07
6.84473e-07
6.83368e-07
4.58138e-07
4.58783e-07
4.5881e-07
6.83399e-07
6.85088e-07
6.83429e-07
4.58939e-07
4.59002e-07
4.59078e-07
4.59143e-07
6.85014e-07
6.83352e-07
4.58876e-07
4.59018e-07
4.59014e-07
4.59157e-07
4.58981e-07
4.5894e-07
4.59119e-07
6.85116e-07
6.83462e-07
4.58909e-07
4.59021e-07
4.59046e-07
6.83492e-07
6.85179e-07
6.83369e-07
4.59089e-07
4.59155e-07
4.59093e-07
4.59158e-07
6.85105e-07
6.83291e-07
4.59027e-07
4.59169e-07
4.5903e-07
4.59173e-07
4.5913e-07
4.58954e-07
4.59134e-07
6.85206e-07
6.83405e-07
4.59057e-07
4.59036e-07
4.5906e-07
6.83432e-07
6.85094e-07
6.83387e-07
4.59091e-07
4.59157e-07
4.59094e-07
4.59161e-07
6.8502e-07
6.83311e-07
4.59029e-07
4.59171e-07
4.59032e-07
4.59175e-07
4.59132e-07
4.58956e-07
4.59135e-07
6.85124e-07
6.83425e-07
4.59058e-07
4.59039e-07
4.59061e-07
6.83455e-07
6.85143e-07
6.83389e-07
4.59094e-07
4.59161e-07
4.59099e-07
4.59167e-07
6.8507e-07
6.83312e-07
4.59033e-07
4.59175e-07
4.59038e-07
4.5918e-07
4.59135e-07
4.58962e-07
4.5914e-07
6.85173e-07
6.83424e-07
4.59061e-07
4.59044e-07
4.59066e-07
6.83452e-07
6.85116e-07
6.83397e-07
4.59097e-07
4.59165e-07
4.59099e-07
4.59167e-07
6.85042e-07
6.83322e-07
4.59037e-07
4.59179e-07
4.59038e-07
4.59181e-07
4.59139e-07
4.58962e-07
4.59141e-07
6.85145e-07
6.83433e-07
4.59065e-07
4.59044e-07
4.59067e-07
6.8346e-07
6.8514e-07
6.83397e-07
4.59099e-07
4.59167e-07
4.59102e-07
4.59171e-07
6.85067e-07
6.83322e-07
4.59038e-07
4.59181e-07
4.59042e-07
4.59184e-07
4.59141e-07
4.58966e-07
4.59145e-07
6.85167e-07
6.83438e-07
4.59067e-07
4.59049e-07
4.5907e-07
6.83461e-07
6.85134e-07
6.834e-07
4.59101e-07
4.59171e-07
4.59101e-07
4.59172e-07
6.85063e-07
6.83326e-07
4.59041e-07
4.59183e-07
4.59043e-07
4.59185e-07
4.59143e-07
4.58967e-07
4.59145e-07
6.85167e-07
6.83438e-07
4.5907e-07
4.59049e-07
4.59071e-07
6.83459e-07
6.85135e-07
6.83399e-07
4.59101e-07
4.5917e-07
4.59103e-07
4.59171e-07
6.85071e-07
6.83328e-07
4.59044e-07
4.59185e-07
4.59047e-07
4.59188e-07
4.59145e-07
4.58969e-07
4.59148e-07
6.85173e-07
6.83438e-07
4.59071e-07
4.59052e-07
4.59074e-07
6.83458e-07
6.85128e-07
6.83414e-07
4.59102e-07
4.5917e-07
4.59102e-07
4.59171e-07
6.85065e-07
6.83329e-07
4.59047e-07
4.59188e-07
4.59048e-07
4.59188e-07
4.59147e-07
4.58969e-07
4.59148e-07
6.85171e-07
6.8344e-07
4.59073e-07
4.59053e-07
4.59075e-07
6.8346e-07
6.85138e-07
6.83422e-07
4.59102e-07
4.5917e-07
4.59104e-07
4.59171e-07
6.85066e-07
6.83326e-07
4.59048e-07
4.59188e-07
4.59051e-07
4.59191e-07
4.59148e-07
4.58968e-07
4.59149e-07
6.85177e-07
6.83435e-07
4.59075e-07
4.59053e-07
4.59075e-07
6.8346e-07
6.85145e-07
6.8343e-07
4.59103e-07
4.5917e-07
4.59106e-07
4.59172e-07
6.85063e-07
6.83325e-07
4.59049e-07
4.59189e-07
4.59053e-07
4.59193e-07
4.59148e-07
4.58969e-07
4.59151e-07
6.85173e-07
6.83437e-07
4.59075e-07
4.59055e-07
4.59077e-07
6.83451e-07
6.85155e-07
6.83433e-07
4.59104e-07
4.5917e-07
4.59106e-07
4.59172e-07
6.85061e-07
6.8333e-07
4.59051e-07
4.59191e-07
4.59052e-07
4.59192e-07
4.59149e-07
4.58971e-07
4.59152e-07
6.85172e-07
6.83441e-07
4.59076e-07
4.59057e-07
4.59079e-07
6.83457e-07
6.85166e-07
6.83416e-07
4.59106e-07
4.59171e-07
4.59106e-07
4.5917e-07
6.85067e-07
6.83323e-07
4.59052e-07
4.59192e-07
4.59051e-07
4.59191e-07
4.59151e-07
4.58967e-07
4.59149e-07
6.85178e-07
6.83432e-07
4.59077e-07
4.59054e-07
4.59077e-07
6.83482e-07
6.85153e-07
6.83421e-07
4.59106e-07
4.5917e-07
4.59107e-07
4.5917e-07
6.85059e-07
6.83339e-07
4.59051e-07
4.59191e-07
4.59051e-07
4.59191e-07
4.59149e-07
4.58968e-07
4.5915e-07
6.85168e-07
6.83447e-07
4.59077e-07
4.59053e-07
4.59076e-07
6.83456e-07
6.85146e-07
6.83442e-07
4.59107e-07
4.59169e-07
4.59109e-07
4.59171e-07
6.85072e-07
6.83339e-07
4.5905e-07
4.59191e-07
4.59051e-07
4.59192e-07
4.59149e-07
4.5897e-07
4.59153e-07
6.85179e-07
6.83444e-07
4.59076e-07
4.59054e-07
4.59079e-07
6.83441e-07
6.85176e-07
6.83397e-07
4.59107e-07
4.59169e-07
4.59112e-07
4.59172e-07
6.85091e-07
6.83284e-07
4.59049e-07
4.59191e-07
4.59052e-07
4.59193e-07
4.59151e-07
4.58971e-07
4.59151e-07
6.85192e-07
6.83399e-07
4.59077e-07
4.59054e-07
4.59079e-07
6.83476e-07
6.85154e-07
6.83353e-07
4.5911e-07
4.5917e-07
4.59112e-07
4.59171e-07
6.8504e-07
6.83285e-07
4.5905e-07
4.59191e-07
4.5905e-07
4.59193e-07
4.59151e-07
4.58968e-07
4.59151e-07
6.85146e-07
6.83409e-07
4.59077e-07
4.59055e-07
4.59078e-07
6.83444e-07
6.85078e-07
6.83415e-07
4.59112e-07
4.5917e-07
4.59113e-07
4.5917e-07
6.84994e-07
6.83378e-07
4.5905e-07
4.59191e-07
4.59049e-07
4.59192e-07
4.59151e-07
4.58967e-07
4.5915e-07
6.85117e-07
6.8348e-07
4.59078e-07
4.59054e-07
4.59077e-07
6.8337e-07
6.85089e-07
6.83506e-07
4.59113e-07
4.5917e-07
4.59114e-07
4.5917e-07
6.85058e-07
6.83431e-07
4.59049e-07
4.59191e-07
4.59048e-07
4.59191e-07
4.59149e-07
4.58971e-07
4.59151e-07
6.8517e-07
6.8351e-07
4.59077e-07
4.59051e-07
4.59074e-07
6.83386e-07
6.85189e-07
6.83509e-07
4.59114e-07
4.59169e-07
4.59117e-07
4.59171e-07
6.85149e-07
6.83388e-07
4.59048e-07
4.59191e-07
4.5905e-07
4.59191e-07
4.59149e-07
4.58971e-07
4.59152e-07
6.85232e-07
6.83474e-07
4.59074e-07
4.59052e-07
4.59075e-07
6.83492e-07
6.85254e-07
6.83427e-07
4.59117e-07
4.5917e-07
4.59117e-07
4.5917e-07
6.8516e-07
6.83317e-07
4.59047e-07
4.5919e-07
4.59051e-07
4.59193e-07
4.5915e-07
4.5897e-07
4.59151e-07
6.8523e-07
6.83435e-07
4.59073e-07
4.59054e-07
4.59076e-07
6.83588e-07
6.85219e-07
6.83364e-07
4.59117e-07
4.5917e-07
4.59118e-07
4.59171e-07
6.85102e-07
6.83301e-07
4.5905e-07
4.59191e-07
4.59049e-07
4.59193e-07
4.5915e-07
4.58969e-07
4.59151e-07
6.85196e-07
6.83436e-07
4.59074e-07
4.59053e-07
4.59076e-07
6.83647e-07
6.85148e-07
6.83366e-07
4.59118e-07
4.59169e-07
4.59121e-07
4.59171e-07
6.85068e-07
6.83314e-07
4.59049e-07
4.59191e-07
4.59048e-07
4.59192e-07
4.5915e-07
4.58969e-07
4.59151e-07
6.85184e-07
6.8346e-07
4.59074e-07
4.59052e-07
4.59075e-07
6.83668e-07
6.8512e-07
6.83399e-07
4.5912e-07
4.5917e-07
4.5912e-07
4.5917e-07
6.85068e-07
6.8333e-07
4.59048e-07
4.59191e-07
4.59049e-07
4.59192e-07
4.5915e-07
4.58969e-07
4.59151e-07
6.85207e-07
6.83461e-07
4.59073e-07
4.59053e-07
4.59076e-07
6.83666e-07
6.85141e-07
6.83409e-07
4.5912e-07
4.5917e-07
4.5912e-07
4.5917e-07
6.85081e-07
6.83343e-07
4.59049e-07
4.59191e-07
4.59048e-07
4.59192e-07
4.59149e-07
4.5897e-07
4.59152e-07
6.85225e-07
6.83432e-07
4.59073e-07
4.59053e-07
4.59076e-07
6.83653e-07
6.85165e-07
6.83385e-07
4.5912e-07
4.59169e-07
4.59122e-07
4.5917e-07
6.85102e-07
6.83341e-07
4.59048e-07
4.59191e-07
4.59048e-07
4.59192e-07
4.5915e-07
4.58971e-07
4.59152e-07
6.8521e-07
6.83413e-07
4.59073e-07
4.59053e-07
4.59076e-07
6.83648e-07
6.85155e-07
6.83368e-07
4.59121e-07
4.59169e-07
4.59122e-07
4.5917e-07
6.85115e-07
6.83324e-07
4.59048e-07
4.59192e-07
4.59047e-07
4.59191e-07
4.5915e-07
4.5897e-07
4.59151e-07
6.8519e-07
6.83411e-07
4.59074e-07
4.59053e-07
4.59074e-07
6.8365e-07
6.85134e-07
6.83379e-07
4.59121e-07
4.59169e-07
4.59123e-07
4.5917e-07
6.85113e-07
6.83302e-07
4.59047e-07
4.59191e-07
4.59047e-07
4.59191e-07
4.5915e-07
4.5897e-07
4.5915e-07
6.85183e-07
6.83414e-07
4.59073e-07
4.59052e-07
4.59073e-07
6.83654e-07
6.85139e-07
6.83379e-07
4.59122e-07
4.5917e-07
4.59124e-07
4.5917e-07
6.85099e-07
6.8328e-07
4.59047e-07
4.59191e-07
4.59048e-07
4.59192e-07
4.59149e-07
4.58971e-07
4.59151e-07
6.85187e-07
6.8341e-07
4.59072e-07
4.59052e-07
4.59072e-07
6.83658e-07
6.85148e-07
6.83358e-07
4.59123e-07
4.5917e-07
4.59123e-07
4.5917e-07
6.85077e-07
6.83263e-07
4.59048e-07
4.59191e-07
4.59048e-07
4.59192e-07
4.5915e-07
4.5897e-07
4.59151e-07
6.85188e-07
6.83398e-07
4.59071e-07
4.59052e-07
4.59073e-07
6.83661e-07
6.85129e-07
6.83362e-07
4.59123e-07
4.5917e-07
4.59123e-07
4.5917e-07
6.85049e-07
6.8327e-07
4.59048e-07
4.59192e-07
4.59046e-07
4.5919e-07
4.5915e-07
4.5897e-07
4.59151e-07
6.85177e-07
6.83394e-07
4.5907e-07
4.59053e-07
4.59073e-07
6.83662e-07
6.85118e-07
6.83383e-07
4.59123e-07
4.5917e-07
4.59123e-07
4.5917e-07
6.85036e-07
6.83293e-07
4.59046e-07
4.5919e-07
4.59047e-07
4.59191e-07
4.5915e-07
4.5897e-07
4.59151e-07
6.85166e-07
6.83403e-07
4.59071e-07
4.59052e-07
4.59073e-07
6.83662e-07
6.85136e-07
6.83387e-07
4.59123e-07
4.5917e-07
4.59124e-07
4.5917e-07
6.85051e-07
6.83302e-07
4.59047e-07
4.5919e-07
4.59047e-07
4.59191e-07
4.5915e-07
4.5897e-07
4.59151e-07
6.85172e-07
6.83403e-07
4.59071e-07
4.59052e-07
4.59073e-07
6.83665e-07
6.85149e-07
6.83384e-07
4.59124e-07
4.5917e-07
4.59124e-07
4.59169e-07
6.85069e-07
6.8329e-07
4.59047e-07
4.5919e-07
4.59046e-07
4.59191e-07
4.59149e-07
4.5897e-07
4.59151e-07
6.85179e-07
6.83389e-07
4.59072e-07
4.59052e-07
4.59072e-07
6.83666e-07
6.85155e-07
6.83379e-07
4.59124e-07
4.59169e-07
4.59123e-07
4.59169e-07
6.85066e-07
6.83284e-07
4.59046e-07
4.59191e-07
4.59046e-07
4.59191e-07
4.5915e-07
4.5897e-07
4.59151e-07
6.85167e-07
6.83385e-07
4.59072e-07
4.59051e-07
4.59072e-07
6.83661e-07
6.85158e-07
6.83369e-07
4.59123e-07
4.59169e-07
4.59123e-07
4.59169e-07
6.85056e-07
6.83291e-07
4.59046e-07
4.59191e-07
4.59045e-07
4.59191e-07
4.5915e-07
4.5897e-07
4.59151e-07
6.85155e-07
6.83394e-07
4.59072e-07
4.5905e-07
4.59071e-07
6.83659e-07
6.85153e-07
6.83358e-07
4.59123e-07
4.59169e-07
4.59123e-07
4.59169e-07
6.85061e-07
6.83288e-07
4.59045e-07
4.59191e-07
4.59045e-07
4.59191e-07
4.5915e-07
4.5897e-07
4.59151e-07
6.85158e-07
6.834e-07
4.5907e-07
4.59051e-07
4.59071e-07
6.83665e-07
6.85144e-07
6.83346e-07
4.59123e-07
4.59169e-07
4.59123e-07
4.59169e-07
6.8506e-07
6.83287e-07
4.59045e-07
4.59191e-07
4.59044e-07
4.59191e-07
4.5915e-07
4.58969e-07
4.5915e-07
6.85163e-07
6.83405e-07
4.59069e-07
4.59051e-07
4.59071e-07
6.83672e-07
6.85125e-07
6.83347e-07
4.59123e-07
4.59169e-07
4.59122e-07
4.59169e-07
6.85054e-07
6.83297e-07
4.59045e-07
4.59191e-07
4.59044e-07
4.59191e-07
4.5915e-07
4.58969e-07
4.5915e-07
6.85168e-07
6.83412e-07
4.5907e-07
4.5905e-07
4.59071e-07
6.83669e-07
6.85113e-07
6.83363e-07
4.59123e-07
4.59169e-07
4.59121e-07
4.59169e-07
6.85063e-07
6.83301e-07
4.59045e-07
4.59191e-07
4.59044e-07
4.59191e-07
4.5915e-07
4.58969e-07
4.5915e-07
6.85178e-07
6.83407e-07
4.59071e-07
4.5905e-07
4.59071e-07
6.83661e-07
6.85119e-07
6.83379e-07
4.59122e-07
4.5917e-07
4.59123e-07
4.59169e-07
6.85075e-07
6.83288e-07
4.59045e-07
4.59191e-07
4.59044e-07
4.59191e-07
4.5915e-07
4.58968e-07
4.59149e-07
6.8518e-07
6.83396e-07
4.59071e-07
4.59049e-07
4.5907e-07
6.83658e-07
6.85136e-07
6.83386e-07
4.59123e-07
4.59169e-07
4.59123e-07
4.59168e-07
6.85072e-07
6.83271e-07
4.59045e-07
4.59192e-07
4.59044e-07
4.5919e-07
4.59149e-07
4.58968e-07
4.5915e-07
6.8517e-07
6.83399e-07
4.5907e-07
4.59048e-07
4.5907e-07
6.83663e-07
6.85153e-07
6.8338e-07
4.59124e-07
4.5917e-07
4.59122e-07
4.59167e-07
6.85054e-07
6.83271e-07
4.59045e-07
4.59192e-07
4.59044e-07
4.5919e-07
4.5915e-07
4.58967e-07
4.59149e-07
6.85167e-07
6.83412e-07
4.5907e-07
4.59048e-07
4.5907e-07
6.83666e-07
6.85158e-07
6.83368e-07
4.59124e-07
4.5917e-07
4.59122e-07
4.59167e-07
6.85041e-07
6.83286e-07
4.59046e-07
4.59192e-07
4.59042e-07
4.59189e-07
4.5915e-07
4.58966e-07
4.59148e-07
6.85181e-07
6.83409e-07
4.5907e-07
4.59047e-07
4.59069e-07
6.83662e-07
6.85151e-07
6.83356e-07
4.59124e-07
4.59169e-07
4.5912e-07
4.59166e-07
6.85049e-07
6.83293e-07
4.59046e-07
4.59192e-07
4.59041e-07
4.59188e-07
4.59149e-07
4.58964e-07
4.59147e-07
6.85189e-07
6.83388e-07
4.5907e-07
4.59045e-07
4.59068e-07
6.83659e-07
6.85138e-07
6.83348e-07
4.59124e-07
4.59169e-07
4.59117e-07
4.59163e-07
6.85061e-07
6.83285e-07
4.59045e-07
4.59191e-07
4.5904e-07
4.59186e-07
4.59149e-07
4.58963e-07
4.59146e-07
6.8517e-07
6.83382e-07
4.5907e-07
4.59044e-07
4.59067e-07
6.83663e-07
6.85122e-07
6.83354e-07
4.59122e-07
4.59167e-07
4.59117e-07
4.59162e-07
6.85059e-07
6.83281e-07
4.59044e-07
4.5919e-07
4.59038e-07
4.59185e-07
4.59148e-07
4.58962e-07
4.59144e-07
6.85151e-07
6.83399e-07
4.59069e-07
4.59042e-07
4.59064e-07
6.83668e-07
6.85117e-07
6.83368e-07
4.59121e-07
4.59167e-07
4.59116e-07
4.59161e-07
6.85054e-07
6.83283e-07
4.59043e-07
4.59189e-07
4.59037e-07
4.59183e-07
4.59147e-07
4.58961e-07
4.59142e-07
6.85159e-07
6.83411e-07
4.59068e-07
4.59041e-07
4.59063e-07
6.83667e-07
6.85128e-07
6.83375e-07
4.59121e-07
4.59166e-07
4.59114e-07
4.59159e-07
6.85054e-07
6.83285e-07
4.59042e-07
4.59189e-07
4.59035e-07
4.59181e-07
4.59147e-07
4.58959e-07
4.59141e-07
6.85177e-07
6.83404e-07
4.59067e-07
4.59039e-07
4.59061e-07
6.8366e-07
6.85142e-07
6.83374e-07
4.59121e-07
4.59167e-07
4.59112e-07
4.59158e-07
6.85055e-07
6.83288e-07
4.59043e-07
4.59189e-07
4.59033e-07
4.5918e-07
4.59148e-07
4.58958e-07
4.59139e-07
6.8518e-07
6.83394e-07
4.59068e-07
4.59037e-07
4.59059e-07
6.83656e-07
6.85149e-07
6.83367e-07
4.59123e-07
4.59168e-07
4.5911e-07
4.59155e-07
6.85062e-07
6.83284e-07
4.59044e-07
4.5919e-07
4.59032e-07
4.59178e-07
4.59149e-07
4.58956e-07
4.59137e-07
6.85172e-07
6.8339e-07
4.59069e-07
4.59035e-07
4.59057e-07
6.83658e-07
6.85147e-07
6.83359e-07
4.59124e-07
4.5917e-07
4.59107e-07
4.59153e-07
6.85063e-07
6.83273e-07
4.59046e-07
4.59192e-07
4.59029e-07
4.59175e-07
4.5915e-07
4.58953e-07
4.59134e-07
6.85167e-07
6.83389e-07
4.5907e-07
4.59033e-07
4.59054e-07
6.83658e-07
6.85141e-07
6.83354e-07
4.59127e-07
4.59172e-07
4.59104e-07
4.5915e-07
6.85055e-07
6.83268e-07
4.59048e-07
4.59194e-07
4.59025e-07
4.59172e-07
4.59152e-07
4.58951e-07
4.59131e-07
6.85163e-07
6.83392e-07
4.59072e-07
4.59029e-07
4.5905e-07
6.83651e-07
6.85135e-07
6.83351e-07
4.59129e-07
4.59174e-07
4.59099e-07
4.59145e-07
6.85045e-07
6.8327e-07
4.5905e-07
4.59196e-07
4.59022e-07
4.59167e-07
4.59155e-07
4.58946e-07
4.59126e-07
6.85161e-07
6.83393e-07
4.59074e-07
4.59024e-07
4.59045e-07
6.8365e-07
6.85132e-07
6.83346e-07
4.59131e-07
4.59176e-07
4.59094e-07
4.59139e-07
6.85041e-07
6.83279e-07
4.59053e-07
4.59199e-07
4.59016e-07
4.59161e-07
4.59157e-07
4.58939e-07
4.59121e-07
6.85163e-07
6.8339e-07
4.59076e-07
4.59018e-07
4.5904e-07
6.83657e-07
6.85128e-07
6.83341e-07
4.59134e-07
4.5918e-07
4.59085e-07
4.59131e-07
6.85048e-07
6.83284e-07
4.59057e-07
4.59202e-07
4.59007e-07
4.59152e-07
4.5916e-07
4.58931e-07
4.59112e-07
6.85163e-07
6.83387e-07
4.59078e-07
4.5901e-07
4.59031e-07
6.83656e-07
6.85118e-07
6.83349e-07
4.59138e-07
4.59184e-07
4.59073e-07
4.59118e-07
6.85057e-07
6.83287e-07
4.5906e-07
4.59206e-07
4.58995e-07
4.5914e-07
4.59164e-07
4.58919e-07
4.591e-07
6.8516e-07
6.83388e-07
4.59082e-07
4.58997e-07
4.59019e-07
6.83658e-07
6.85115e-07
6.83357e-07
4.5914e-07
4.59186e-07
4.59054e-07
4.59099e-07
6.85059e-07
6.83278e-07
4.59063e-07
4.59207e-07
4.58977e-07
4.5912e-07
4.59167e-07
4.58898e-07
4.5908e-07
6.85155e-07
6.83375e-07
4.59085e-07
4.58977e-07
4.58999e-07
6.83652e-07
6.85108e-07
6.83348e-07
4.59139e-07
4.59184e-07
4.59022e-07
4.59064e-07
6.85041e-07
6.83265e-07
4.59061e-07
4.59206e-07
4.58946e-07
4.59088e-07
4.59165e-07
4.58865e-07
4.59046e-07
6.85132e-07
6.83376e-07
4.59084e-07
4.58944e-07
4.58962e-07
6.83631e-07
6.8508e-07
6.83191e-07
4.59127e-07
4.59166e-07
4.58709e-07
4.58747e-07
6.85015e-07
6.83097e-07
4.59048e-07
4.5919e-07
4.58626e-07
4.58766e-07
4.5915e-07
4.58555e-07
4.58734e-07
6.85102e-07
6.83231e-07
4.59064e-07
4.58624e-07
4.5864e-07
6.83436e-07
6.84813e-07
6.67488e-07
4.59004e-07
4.5904e-07
4.4411e-07
4.44146e-07
6.84736e-07
6.67438e-07
4.5892e-07
4.59066e-07
4.44073e-07
4.44123e-07
4.59032e-07
4.44032e-07
4.4412e-07
6.8484e-07
6.67498e-07
4.58932e-07
4.44054e-07
4.44073e-07
6.67523e-07
6.4882e-07
4.28509e-07
4.2854e-07
6.48788e-07
4.28488e-07
4.28516e-07
1.87279e-07
1.87271e-07
1.87277e-07
4.28515e-07
6.48829e-07
4.28488e-07
8.25082e-08
1.53083e-08
5.73817e-08
5.75263e-08
1.01351e-09
6.03467e-09
1.45402e-08
3.57182e-08
1.08944e-09
5.80296e-09
3.51169e-08
1.15716e-08
5.66991e-09
8.34253e-09
3.77586e-09
6.38544e-09
1.66952e-07
4.56987e-09
2.59059e-07
1.58086e-06
3.09123e-06
6.48834e-09
1.71703e-07
4.72278e-09
2.65539e-07
3.42219e-08
3.38002e-08
3.37965e-08
3.41349e-08
3.42208e-08
3.37725e-08
3.37763e-08
1.0241e-09
8.98502e-08
1.63723e-08
7.57499e-09
1.02139e-09
6.85754e-08
1.62729e-08
1.65848e-06
3.23436e-06
1.06551e-09
1.56486e-08
8.57793e-08
6.71749e-09
1.07225e-09
1.5551e-08
6.43964e-08
2.02178e-07
2.14254e-07
5.18861e-09
1.78334e-07
1.83748e-07
1.66013e-08
4.84399e-07
9.98939e-09
6.68848e-07
7.02599e-06
9.99317e-06
1.6185e-08
4.98891e-07
1.03656e-08
6.76373e-07
3.44836e-08
3.40244e-08
3.40365e-08
3.52118e-08
3.53022e-08
3.48225e-08
3.48525e-08
1.00794e-09