/*--------------------------------*- C++ -*----------------------------------*\
| =========                 |                                                 |
| \\      /  F ield         | OpenFOAM: The Open Source CFD Toolbox           |
|  \\    /   O peration     | Version:  v1906                                 |
|   \\  /    A nd           | Web:      www.OpenFOAM.com                      |
|    \\/     M anipulation  |                                                 |
\*---------------------------------------------------------------------------*/
FoamFile
{
    version     2.0;
    format      ascii;
    class       volScalarField;
    location    "125";
    object      k;
}
// * * * * * * * * * * * * * * * * * * * * * * * * * * * * * * * * * * * * * //

dimensions      [0 2 -2 0 0 0 0];


internalField   nonuniform List<scalar> 
171728
(
3.7877e-06
5.90507e-07
5.61081e-07
3.46017e-07
3.83007e-06
6.17365e-07
5.85552e-07
3.27679e-07
3.95918e-06
6.59385e-07
6.2647e-07
3.18343e-07
4.08538e-06
7.04742e-07
6.74053e-07
3.16968e-07
4.20932e-06
7.56182e-07
7.28428e-07
3.24386e-07
4.33218e-06
8.14304e-07
7.89859e-07
3.38697e-07
4.45212e-06
8.81863e-07
8.49075e-07
3.59717e-07
4.57003e-06
9.62678e-07
9.16476e-07
3.8407e-07
4.68533e-06
1.05776e-06
9.74276e-07
4.08949e-07
4.79994e-06
1.17006e-06
1.06259e-06
4.33229e-07
4.91289e-06
1.29964e-06
1.16904e-06
4.64754e-07
5.02538e-06
1.44079e-06
1.28813e-06
5.10734e-07
5.13652e-06
1.61147e-06
1.42105e-06
5.69099e-07
5.24328e-06
1.70232e-06
1.56768e-06
6.37382e-07
5.34326e-06
1.80312e-06
1.73293e-06
7.22591e-07
5.45268e-06
1.9561e-06
1.92747e-06
8.35162e-07
5.58122e-06
2.15605e-06
2.14808e-06
9.81898e-07
5.72001e-06
2.40235e-06
2.42114e-06
1.19857e-06
5.86655e-06
2.73137e-06
2.74889e-06
1.53733e-06
6.02159e-06
3.11668e-06
3.13546e-06
2.01063e-06
6.20687e-06
3.60094e-06
3.62042e-06
2.64922e-06
6.41971e-06
4.18343e-06
4.21888e-06
3.56302e-06
6.69969e-06
4.94523e-06
4.99285e-06
4.84903e-06
7.04911e-06
5.91725e-06
5.96691e-06
6.69368e-06
7.50982e-06
7.23073e-06
7.26003e-06
9.20763e-06
8.10205e-06
9.04849e-06
9.06425e-06
1.25715e-05
8.97777e-06
1.15534e-05
1.15705e-05
1.63859e-05
1.0262e-05
1.47249e-05
1.47361e-05
2.02776e-05
1.17922e-05
1.79543e-05
1.79595e-05
2.36037e-05
1.34169e-05
2.07265e-05
2.07295e-05
2.61066e-05
1.47593e-05
2.25606e-05
2.2563e-05
2.76266e-05
1.5499e-05
2.33575e-05
2.33598e-05
2.81737e-05
1.57813e-05
2.36112e-05
2.36134e-05
2.83397e-05
1.5862e-05
2.36757e-05
2.36778e-05
2.83824e-05
1.58803e-05
2.36896e-05
2.36916e-05
2.83964e-05
1.58835e-05
2.36907e-05
2.36928e-05
2.83915e-05
1.58842e-05
2.36913e-05
2.36933e-05
2.83932e-05
1.58844e-05
2.36913e-05
2.36934e-05
2.83928e-05
1.58845e-05
2.36913e-05
2.36934e-05
2.83935e-05
1.58846e-05
2.36914e-05
2.36936e-05
2.83934e-05
1.58848e-05
2.36916e-05
2.36936e-05
2.83932e-05
1.58849e-05
2.36918e-05
2.36938e-05
2.83931e-05
1.5885e-05
2.36918e-05
2.36938e-05
2.83931e-05
1.5885e-05
2.36918e-05
2.36938e-05
2.8393e-05
1.58851e-05
2.36919e-05
2.36938e-05
2.83928e-05
1.58851e-05
2.3692e-05
2.36939e-05
2.83932e-05
1.58852e-05
2.36919e-05
2.36939e-05
2.83939e-05
1.58852e-05
2.36919e-05
2.36938e-05
2.83927e-05
1.58853e-05
2.3692e-05
2.36939e-05
2.83926e-05
1.58852e-05
2.3692e-05
2.36938e-05
2.83944e-05
1.58853e-05
2.3692e-05
2.36938e-05
2.83928e-05
1.58853e-05
2.36919e-05
2.36938e-05
2.83907e-05
1.58853e-05
2.3692e-05
2.36938e-05
2.83928e-05
1.58853e-05
2.36921e-05
2.36938e-05
2.83967e-05
1.58853e-05
2.3692e-05
2.36938e-05
2.83981e-05
1.58853e-05
2.36921e-05
2.36938e-05
2.83978e-05
1.58853e-05
2.36921e-05
2.36938e-05
2.83971e-05
1.58853e-05
2.36921e-05
2.36938e-05
2.8396e-05
1.58854e-05
2.36921e-05
2.36938e-05
2.8395e-05
1.58854e-05
2.36921e-05
2.36938e-05
2.83946e-05
1.58854e-05
2.36921e-05
2.36938e-05
2.83948e-05
1.58854e-05
2.36921e-05
2.36938e-05
2.83953e-05
1.58854e-05
2.36921e-05
2.36938e-05
2.8396e-05
1.58854e-05
2.36921e-05
2.36938e-05
2.83965e-05
1.58854e-05
2.36921e-05
2.36938e-05
2.83967e-05
1.58854e-05
2.36921e-05
2.36938e-05
2.83968e-05
1.58854e-05
2.36921e-05
2.36938e-05
2.8397e-05
1.58853e-05
2.36921e-05
2.36938e-05
2.8397e-05
1.58853e-05
2.36921e-05
2.36937e-05
2.83967e-05
1.58853e-05
2.36921e-05
2.36937e-05
2.83968e-05
1.58853e-05
2.36921e-05
2.36937e-05
2.83972e-05
1.58853e-05
2.36921e-05
2.36937e-05
2.83972e-05
1.58853e-05
2.3692e-05
2.36937e-05
2.83967e-05
1.58853e-05
2.3692e-05
2.36937e-05
2.83963e-05
1.58853e-05
2.3692e-05
2.36936e-05
2.83964e-05
1.58853e-05
2.3692e-05
2.36936e-05
2.83968e-05
1.58854e-05
2.3692e-05
2.36936e-05
2.83969e-05
1.58854e-05
2.3692e-05
2.36936e-05
2.83967e-05
1.58854e-05
2.36919e-05
2.36936e-05
2.83966e-05
1.58854e-05
2.36919e-05
2.36936e-05
2.83969e-05
1.58854e-05
2.3692e-05
2.36936e-05
2.83971e-05
1.58854e-05
2.3692e-05
2.36936e-05
2.83968e-05
1.58854e-05
2.36921e-05
2.36937e-05
2.83964e-05
1.58854e-05
2.36922e-05
2.36937e-05
2.83963e-05
1.58854e-05
2.36922e-05
2.36938e-05
2.83966e-05
1.58855e-05
2.36923e-05
2.36939e-05
2.83967e-05
1.58855e-05
2.36925e-05
2.36941e-05
2.83966e-05
1.58855e-05
2.36927e-05
2.36942e-05
2.83968e-05
1.58855e-05
2.3693e-05
2.36945e-05
2.83971e-05
1.58856e-05
2.36934e-05
2.36949e-05
2.8397e-05
1.58856e-05
2.36941e-05
2.36956e-05
2.83971e-05
1.58858e-05
2.36951e-05
2.36966e-05
2.8397e-05
1.58858e-05
2.36966e-05
2.3698e-05
2.8396e-05
1.58763e-05
2.36916e-05
2.3693e-05
2.83904e-05
1.56306e-05
2.28623e-05
2.28623e-05
2.76565e-05
3.65308e-07
4.30026e-07
4.03929e-07
3.83031e-07
4.10892e-07
4.69326e-07
3.87089e-06
3.87511e-06
3.86637e-06
3.85703e-06
4.63802e-07
3.69784e-07
3.87439e-07
4.52169e-07
4.40534e-07
3.49933e-07
3.62519e-07
3.52994e-07
5.43384e-07
5.14723e-07
5.5636e-07
5.24088e-07
3.79056e-07
3.62186e-07
5.29623e-07
5.86997e-07
5.47943e-07
6.0301e-07
4.78314e-07
6.08225e-07
4.94011e-07
3.84975e-07
3.78127e-07
5.57509e-07
5.76962e-07
5.71133e-07
3.31295e-07
3.50595e-07
3.46989e-07
5.64195e-07
5.31547e-07
5.88304e-07
5.5817e-07
3.58417e-07
3.51167e-07
5.57672e-07
6.12264e-07
5.91508e-07
6.42861e-07
5.03136e-07
6.48456e-07
5.33493e-07
3.76473e-07
3.77699e-07
5.78901e-07
6.14601e-07
6.06616e-07
3.20632e-07
3.45379e-07
3.4671e-07
5.97735e-07
5.68879e-07
6.2691e-07
6.02533e-07
3.48491e-07
3.48152e-07
6.03821e-07
6.54242e-07
6.43737e-07
6.9079e-07
5.44707e-07
6.93102e-07
5.80917e-07
3.76762e-07
3.87665e-07
6.16753e-07
6.61973e-07
6.49763e-07
3.18357e-07
3.45528e-07
3.53412e-07
6.37919e-07
6.1541e-07
6.73978e-07
6.5612e-07
3.46758e-07
3.54778e-07
6.58219e-07
7.0377e-07
7.03513e-07
7.43036e-07
5.94433e-07
7.43134e-07
6.37137e-07
3.86861e-07
4.01644e-07
6.62111e-07
7.15883e-07
7.00629e-07
3.2548e-07
3.52373e-07
3.65417e-07
6.86052e-07
6.71528e-07
7.29463e-07
7.20851e-07
3.53362e-07
3.61372e-07
7.19147e-07
7.57088e-07
7.70978e-07
7.97375e-07
6.52619e-07
8.00189e-07
7.02713e-07
4.00798e-07
4.16051e-07
7.14925e-07
7.74357e-07
7.57668e-07
3.39564e-07
3.64345e-07
3.8212e-07
7.44018e-07
7.38146e-07
7.9339e-07
7.96122e-07
3.59723e-07
3.69954e-07
7.89118e-07
8.11055e-07
8.43052e-07
8.55484e-07
7.20543e-07
8.65297e-07
7.79093e-07
4.14964e-07
4.25747e-07
7.72279e-07
8.34128e-07
8.19853e-07
3.6047e-07
3.81116e-07
4.02946e-07
8.10778e-07
8.15028e-07
8.64e-07
8.79575e-07
3.68187e-07
3.85002e-07
8.60762e-07
8.69836e-07
9.20341e-07
9.18995e-07
7.98715e-07
9.41298e-07
8.63524e-07
4.23859e-07
4.30348e-07
8.35624e-07
9.01658e-07
8.85053e-07
3.84954e-07
4.01645e-07
4.2366e-07
8.83198e-07
9.02687e-07
9.44588e-07
9.7404e-07
3.83507e-07
4.09557e-07
9.40128e-07
9.35322e-07
1.00499e-06
9.9222e-07
8.85815e-07
1.03333e-06
9.5389e-07
4.28456e-07
4.43284e-07
9.01508e-07
9.58368e-07
9.53944e-07
4.10181e-07
4.22266e-07
4.49476e-07
9.65801e-07
9.98489e-07
1.03408e-06
1.07392e-06
4.08377e-07
4.45839e-07
1.02885e-06
1.0132e-06
1.0994e-06
1.0771e-06
9.78558e-07
1.14041e-06
1.04999e-06
4.41283e-07
4.52063e-07
9.73725e-07
1.03734e-06
1.03777e-06
4.34678e-07
4.48071e-07
4.8187e-07
1.05913e-06
1.10212e-06
1.13919e-06
1.18436e-06
4.45114e-07
4.93916e-07
1.12476e-06
1.10122e-06
1.20556e-06
1.17712e-06
1.07493e-06
1.26664e-06
1.1536e-06
4.48762e-07
4.59368e-07
1.0608e-06
1.14309e-06
1.13699e-06
4.65742e-07
4.8092e-07
5.31188e-07
1.16826e-06
1.21166e-06
1.26467e-06
1.29731e-06
4.93632e-07
5.53072e-07
1.2327e-06
1.20331e-06
1.32829e-06
1.29177e-06
1.18061e-06
1.40149e-06
1.26894e-06
4.57438e-07
4.97389e-07
1.16443e-06
1.25716e-06
1.2519e-06
5.11062e-07
5.31042e-07
5.9401e-07
1.29674e-06
1.32676e-06
1.39976e-06
1.42193e-06
5.53157e-07
6.18778e-07
1.36396e-06
1.32285e-06
1.46758e-06
1.41949e-06
1.29894e-06
1.57508e-06
1.39425e-06
4.9667e-07
5.55209e-07
1.28301e-06
1.38702e-06
1.38197e-06
5.69e-07
5.94552e-07
6.78024e-07
1.43837e-06
1.45657e-06
1.5571e-06
1.5641e-06
6.18459e-07
6.73796e-07
1.50521e-06
1.45352e-06
1.64205e-06
1.55387e-06
1.42973e-06
1.68419e-06
1.53763e-06
5.55296e-07
6.27442e-07
1.41731e-06
1.53013e-06
1.52787e-06
6.3652e-07
6.80881e-07
7.81771e-07
1.59788e-06
1.60208e-06
1.73174e-06
1.73326e-06
6.72935e-07
7.38572e-07
1.69025e-06
1.59005e-06
1.82761e-06
1.71514e-06
1.57357e-06
1.77398e-06
1.69327e-06
6.2875e-07
7.19778e-07
1.56544e-06
1.69262e-06
1.68937e-06
7.19907e-07
7.84451e-07
8.82091e-07
1.77544e-06
1.77949e-06
1.91863e-06
1.93916e-06
7.40336e-07
8.48332e-07
1.86409e-06
1.75584e-06
1.96845e-06
1.89588e-06
1.73489e-06
1.91332e-06
1.87505e-06
7.23034e-07
8.3754e-07
1.73228e-06
1.87546e-06
1.87824e-06
8.29847e-07
8.866e-07
1.02759e-06
1.97347e-06
1.99817e-06
2.14473e-06
2.17864e-06
8.54372e-07
1.00486e-06
2.00624e-06
1.94621e-06
2.12215e-06
2.08846e-06
1.92776e-06
2.09952e-06
2.08565e-06
8.43386e-07
9.85769e-07
1.93201e-06
2.08618e-06
2.09361e-06
9.72759e-07
1.03867e-06
1.2531e-06
2.20971e-06
2.24707e-06
2.42012e-06
2.44922e-06
1.01516e-06
1.21508e-06
2.17264e-06
2.14452e-06
2.34425e-06
2.33066e-06
2.14752e-06
2.33961e-06
2.35401e-06
9.95251e-07
1.19339e-06
2.15556e-06
2.35154e-06
2.36121e-06
1.18105e-06
1.27125e-06
1.54981e-06
2.49161e-06
2.51156e-06
2.72882e-06
2.71542e-06
1.23103e-06
1.49046e-06
2.40582e-06
2.39714e-06
2.62889e-06
2.63077e-06
2.42439e-06
2.64019e-06
2.66999e-06
1.21062e-06
1.48902e-06
2.43359e-06
2.66072e-06
2.68118e-06
1.48129e-06
1.6015e-06
1.98109e-06
2.81742e-06
2.79342e-06
3.09851e-06
3.04649e-06
1.54175e-06
1.91841e-06
2.71509e-06
2.72002e-06
2.99638e-06
3.00675e-06
2.76393e-06
3.01668e-06
3.04964e-06
1.54195e-06
1.92892e-06
2.77546e-06
3.03468e-06
3.06496e-06
1.92495e-06
2.06683e-06
2.57928e-06
3.19772e-06
3.13595e-06
3.53716e-06
3.44782e-06
2.00419e-06
2.51906e-06
3.09733e-06
3.10737e-06
3.44244e-06
3.45087e-06
3.15227e-06
3.46894e-06
3.51229e-06
2.01557e-06
2.53318e-06
3.16753e-06
3.48751e-06
3.52624e-06
2.52733e-06
2.70169e-06
3.43054e-06
3.6671e-06
3.5708e-06
4.10066e-06
3.98881e-06
2.64097e-06
3.37437e-06
3.57285e-06
3.58125e-06
4.00141e-06
4.00841e-06
3.64405e-06
4.02756e-06
4.06406e-06
2.65666e-06
3.39643e-06
3.6598e-06
4.05802e-06
4.08659e-06
3.38133e-06
3.61331e-06
4.66703e-06
4.26291e-06
4.14668e-06
4.82959e-06
4.69895e-06
3.55819e-06
4.60885e-06
4.16043e-06
4.16746e-06
4.7129e-06
4.72133e-06
4.22052e-06
4.73454e-06
4.76728e-06
3.58161e-06
4.64151e-06
4.24476e-06
4.78041e-06
4.80243e-06
4.59212e-06
4.92899e-06
6.38438e-06
5.0468e-06
4.91121e-06
5.76889e-06
5.62717e-06
4.86794e-06
6.3223e-06
4.92368e-06
4.93296e-06
5.62911e-06
5.64684e-06
4.97556e-06
5.65406e-06
5.6728e-06
4.90271e-06
6.36758e-06
5.01559e-06
5.7046e-06
5.72036e-06
6.32714e-06
6.7416e-06
8.71453e-06
6.03209e-06
5.89547e-06
6.9467e-06
6.84537e-06
6.68452e-06
8.69206e-06
5.89299e-06
5.91497e-06
6.83298e-06
6.8632e-06
5.93384e-06
6.8572e-06
6.86571e-06
6.73052e-06
8.72211e-06
5.98014e-06
6.89293e-06
6.90262e-06
8.70621e-06
9.21031e-06
1.19276e-05
7.30938e-06
7.22145e-06
8.59495e-06
8.53547e-06
9.1933e-06
1.1918e-05
7.20776e-06
7.23788e-06
8.52326e-06
8.54814e-06
7.23766e-06
8.54416e-06
8.54298e-06
9.21744e-06
1.19247e-05
7.27131e-06
8.56078e-06
8.56723e-06
1.19329e-05
1.25683e-05
1.5696e-05
9.09395e-06
9.04098e-06
1.08767e-05
1.08432e-05
1.25584e-05
1.56839e-05
9.03043e-06
9.05312e-06
1.08376e-05
1.08549e-05
9.04637e-06
1.08475e-05
1.08444e-05
1.25643e-05
1.5695e-05
9.06725e-06
1.08645e-05
1.0855e-05
1.56895e-05
1.6393e-05
1.96029e-05
1.15783e-05
1.15514e-05
1.39172e-05
1.39063e-05
1.63814e-05
1.95975e-05
1.1547e-05
1.15629e-05
1.39033e-05
1.39154e-05
1.15518e-05
1.39048e-05
1.39053e-05
1.63937e-05
1.96099e-05
1.15597e-05
1.39179e-05
1.39076e-05
1.96006e-05
2.02794e-05
2.30492e-05
1.47351e-05
1.47276e-05
1.71743e-05
1.71726e-05
2.02751e-05
2.30473e-05
1.47248e-05
1.47356e-05
1.71697e-05
1.71771e-05
1.47266e-05
1.7169e-05
1.71719e-05
2.0286e-05
2.30532e-05
1.47277e-05
1.71752e-05
1.71709e-05
2.30498e-05
2.36031e-05
2.57027e-05
1.79591e-05
1.79583e-05
2.01087e-05
2.01089e-05
2.36015e-05
2.57012e-05
1.79554e-05
1.79619e-05
2.01063e-05
2.01106e-05
1.79579e-05
2.01053e-05
2.01095e-05
2.36064e-05
2.57045e-05
1.79566e-05
2.01086e-05
2.01076e-05
2.57043e-05
2.61053e-05
2.73935e-05
2.07298e-05
2.07301e-05
2.22124e-05
2.22128e-05
2.61038e-05
2.73919e-05
2.07277e-05
2.07315e-05
2.22107e-05
2.22135e-05
2.07309e-05
2.22096e-05
2.22137e-05
2.61066e-05
2.7394e-05
2.0729e-05
2.22119e-05
2.22121e-05
2.73948e-05
2.76255e-05
2.80804e-05
2.25634e-05
2.25636e-05
2.32318e-05
2.32322e-05
2.7624e-05
2.80789e-05
2.25618e-05
2.25643e-05
2.32304e-05
2.32325e-05
2.25648e-05
2.32293e-05
2.32336e-05
2.76258e-05
2.80811e-05
2.25633e-05
2.32316e-05
2.32321e-05
2.80824e-05
2.81718e-05
2.82885e-05
2.33599e-05
2.33602e-05
2.35772e-05
2.35775e-05
2.81704e-05
2.82868e-05
2.33586e-05
2.33605e-05
2.35761e-05
2.35777e-05
2.33617e-05
2.35749e-05
2.3579e-05
2.81723e-05
2.82888e-05
2.33603e-05
2.3577e-05
2.35777e-05
2.82901e-05
2.83381e-05
2.83442e-05
2.36134e-05
2.36137e-05
2.36691e-05
2.36694e-05
2.83365e-05
2.83425e-05
2.36124e-05
2.36139e-05
2.36681e-05
2.36696e-05
2.36152e-05
2.36669e-05
2.36708e-05
2.83382e-05
2.83443e-05
2.36139e-05
2.3669e-05
2.36696e-05
2.83456e-05
2.83809e-05
2.83612e-05
2.36778e-05
2.36781e-05
2.36904e-05
2.36906e-05
2.83794e-05
2.83596e-05
2.36769e-05
2.36783e-05
2.36894e-05
2.36908e-05
2.36795e-05
2.36882e-05
2.36919e-05
2.83809e-05
2.83613e-05
2.36783e-05
2.36902e-05
2.36907e-05
2.83626e-05
2.83951e-05
2.83575e-05
2.36918e-05
2.3692e-05
2.3693e-05
2.36932e-05
2.83935e-05
2.83558e-05
2.36909e-05
2.36922e-05
2.3692e-05
2.36934e-05
2.36933e-05
2.36907e-05
2.36945e-05
2.83951e-05
2.83576e-05
2.36921e-05
2.36928e-05
2.36932e-05
2.83587e-05
2.83903e-05
2.83575e-05
2.36929e-05
2.36932e-05
2.36932e-05
2.36935e-05
2.83886e-05
2.83558e-05
2.3692e-05
2.36935e-05
2.36923e-05
2.36937e-05
2.36944e-05
2.36909e-05
2.36947e-05
2.83903e-05
2.83578e-05
2.36932e-05
2.36931e-05
2.36934e-05
2.8359e-05
2.83918e-05
2.83591e-05
2.36934e-05
2.36937e-05
2.36937e-05
2.3694e-05
2.83902e-05
2.83575e-05
2.36926e-05
2.3694e-05
2.36929e-05
2.36942e-05
2.36948e-05
2.36914e-05
2.36951e-05
2.83919e-05
2.83591e-05
2.36935e-05
2.36934e-05
2.36938e-05
2.83601e-05
2.83918e-05
2.83585e-05
2.36935e-05
2.36938e-05
2.36935e-05
2.36938e-05
2.83901e-05
2.8357e-05
2.36927e-05
2.36941e-05
2.36927e-05
2.36941e-05
2.3695e-05
2.36913e-05
2.3695e-05
2.83917e-05
2.83589e-05
2.36937e-05
2.36933e-05
2.36937e-05
2.83598e-05
2.83923e-05
2.83587e-05
2.36935e-05
2.36938e-05
2.36936e-05
2.36939e-05
2.83909e-05
2.83571e-05
2.36927e-05
2.36941e-05
2.36928e-05
2.36942e-05
2.3695e-05
2.36914e-05
2.36951e-05
2.83924e-05
2.83591e-05
2.36937e-05
2.36935e-05
2.36938e-05
2.83599e-05
2.83921e-05
2.83586e-05
2.36936e-05
2.36939e-05
2.36936e-05
2.3694e-05
2.83907e-05
2.83569e-05
2.36928e-05
2.36942e-05
2.36929e-05
2.36942e-05
2.36951e-05
2.36915e-05
2.36952e-05
2.83925e-05
2.83588e-05
2.36939e-05
2.36935e-05
2.36939e-05
2.83596e-05
2.8392e-05
2.83591e-05
2.36936e-05
2.3694e-05
2.36937e-05
2.36941e-05
2.83906e-05
2.8357e-05
2.3693e-05
2.36942e-05
2.36931e-05
2.36944e-05
2.36952e-05
2.36917e-05
2.36953e-05
2.83925e-05
2.83589e-05
2.36939e-05
2.36937e-05
2.3694e-05
2.83598e-05
2.83921e-05
2.83599e-05
2.36937e-05
2.36941e-05
2.36938e-05
2.36942e-05
2.83904e-05
2.83571e-05
2.36931e-05
2.36944e-05
2.36932e-05
2.36944e-05
2.36953e-05
2.36917e-05
2.36953e-05
2.83924e-05
2.83587e-05
2.3694e-05
2.36937e-05
2.36941e-05
2.83598e-05
2.8393e-05
2.83602e-05
2.36937e-05
2.36941e-05
2.36939e-05
2.36943e-05
2.83904e-05
2.83571e-05
2.36931e-05
2.36944e-05
2.36934e-05
2.36946e-05
2.36953e-05
2.36918e-05
2.36954e-05
2.83925e-05
2.83586e-05
2.36941e-05
2.36938e-05
2.36942e-05
2.83598e-05
2.83935e-05
2.83602e-05
2.36938e-05
2.36942e-05
2.36939e-05
2.36943e-05
2.83903e-05
2.83574e-05
2.36932e-05
2.36945e-05
2.36933e-05
2.36946e-05
2.36954e-05
2.36919e-05
2.36955e-05
2.83922e-05
2.83589e-05
2.36941e-05
2.36939e-05
2.36942e-05
2.83597e-05
2.83939e-05
2.83596e-05
2.36939e-05
2.36943e-05
2.36939e-05
2.36943e-05
2.83905e-05
2.83573e-05
2.36933e-05
2.36946e-05
2.36933e-05
2.36946e-05
2.36955e-05
2.36919e-05
2.36955e-05
2.83925e-05
2.83587e-05
2.36942e-05
2.36939e-05
2.36942e-05
2.83603e-05
2.83938e-05
2.8359e-05
2.36939e-05
2.36943e-05
2.3694e-05
2.36943e-05
2.83905e-05
2.8357e-05
2.36933e-05
2.36946e-05
2.36933e-05
2.36946e-05
2.36955e-05
2.36918e-05
2.36955e-05
2.83925e-05
2.83585e-05
2.36942e-05
2.36938e-05
2.36942e-05
2.83604e-05
2.8393e-05
2.83598e-05
2.3694e-05
2.36943e-05
2.36941e-05
2.36944e-05
2.83901e-05
2.83577e-05
2.36933e-05
2.36946e-05
2.36933e-05
2.36946e-05
2.36955e-05
2.36919e-05
2.36956e-05
2.83921e-05
2.83591e-05
2.36942e-05
2.36938e-05
2.36942e-05
2.83591e-05
2.83932e-05
2.836e-05
2.3694e-05
2.36944e-05
2.36941e-05
2.36945e-05
2.83908e-05
2.83569e-05
2.36933e-05
2.36946e-05
2.36933e-05
2.36947e-05
2.36955e-05
2.3692e-05
2.36956e-05
2.83927e-05
2.83583e-05
2.36942e-05
2.36938e-05
2.36943e-05
2.83599e-05
2.83939e-05
2.83583e-05
2.36941e-05
2.36944e-05
2.36942e-05
2.36945e-05
2.83906e-05
2.8356e-05
2.36932e-05
2.36946e-05
2.36933e-05
2.36946e-05
2.36955e-05
2.3692e-05
2.36955e-05
2.83922e-05
2.8358e-05
2.36942e-05
2.36938e-05
2.36943e-05
2.8361e-05
2.83923e-05
2.83589e-05
2.36941e-05
2.36944e-05
2.36942e-05
2.36944e-05
2.83889e-05
2.83582e-05
2.36933e-05
2.36946e-05
2.36932e-05
2.36947e-05
2.36955e-05
2.36919e-05
2.36955e-05
2.83909e-05
2.83601e-05
2.36942e-05
2.36938e-05
2.36942e-05
2.83587e-05
2.83913e-05
2.83617e-05
2.36942e-05
2.36944e-05
2.36942e-05
2.36944e-05
2.839e-05
2.83604e-05
2.36932e-05
2.36946e-05
2.36932e-05
2.36946e-05
2.36955e-05
2.3692e-05
2.36955e-05
2.83924e-05
2.83613e-05
2.36942e-05
2.36938e-05
2.36941e-05
2.83582e-05
2.83938e-05
2.83619e-05
2.36942e-05
2.36944e-05
2.36943e-05
2.36945e-05
2.83933e-05
2.83585e-05
2.36932e-05
2.36946e-05
2.36932e-05
2.36946e-05
2.36955e-05
2.3692e-05
2.36956e-05
2.83947e-05
2.83594e-05
2.36941e-05
2.36937e-05
2.36941e-05
2.83617e-05
2.83958e-05
2.83591e-05
2.36943e-05
2.36944e-05
2.36944e-05
2.36945e-05
2.83935e-05
2.83555e-05
2.36932e-05
2.36946e-05
2.36933e-05
2.36946e-05
2.36955e-05
2.3692e-05
2.36956e-05
2.83942e-05
2.83575e-05
2.36941e-05
2.36938e-05
2.36942e-05
2.83645e-05
2.83945e-05
2.83564e-05
2.36944e-05
2.36945e-05
2.36944e-05
2.36945e-05
2.83907e-05
2.8355e-05
2.36932e-05
2.36946e-05
2.36932e-05
2.36947e-05
2.36955e-05
2.36921e-05
2.36956e-05
2.83921e-05
2.83579e-05
2.36941e-05
2.36938e-05
2.36942e-05
2.83639e-05
2.83914e-05
2.83566e-05
2.36944e-05
2.36944e-05
2.36945e-05
2.36946e-05
2.83888e-05
2.8357e-05
2.36932e-05
2.36946e-05
2.36931e-05
2.36946e-05
2.36955e-05
2.36921e-05
2.36956e-05
2.83916e-05
2.83594e-05
2.36942e-05
2.36938e-05
2.36942e-05
2.83622e-05
2.839e-05
2.83584e-05
2.36944e-05
2.36945e-05
2.36945e-05
2.36945e-05
2.839e-05
2.83578e-05
2.36931e-05
2.36946e-05
2.36931e-05
2.36946e-05
2.36955e-05
2.36921e-05
2.36955e-05
2.83929e-05
2.83598e-05
2.36941e-05
2.36938e-05
2.36942e-05
2.83605e-05
2.8391e-05
2.83593e-05
2.36945e-05
2.36945e-05
2.36945e-05
2.36945e-05
2.83914e-05
2.83572e-05
2.36931e-05
2.36946e-05
2.36931e-05
2.36946e-05
2.36955e-05
2.36921e-05
2.36956e-05
2.83943e-05
2.83583e-05
2.36941e-05
2.36938e-05
2.36942e-05
2.83588e-05
2.83924e-05
2.83584e-05
2.36945e-05
2.36945e-05
2.36946e-05
2.36945e-05
2.83916e-05
2.83563e-05
2.36931e-05
2.36946e-05
2.36931e-05
2.36946e-05
2.36955e-05
2.36921e-05
2.36956e-05
2.83937e-05
2.83565e-05
2.36941e-05
2.36937e-05
2.36941e-05
2.83576e-05
2.83923e-05
2.8357e-05
2.36946e-05
2.36945e-05
2.36946e-05
2.36945e-05
2.83912e-05
2.83552e-05
2.36931e-05
2.36946e-05
2.36931e-05
2.36946e-05
2.36955e-05
2.3692e-05
2.36956e-05
2.83918e-05
2.83562e-05
2.36941e-05
2.36937e-05
2.36941e-05
2.83573e-05
2.83908e-05
2.83569e-05
2.36946e-05
2.36945e-05
2.36946e-05
2.36945e-05
2.83903e-05
2.83544e-05
2.36931e-05
2.36946e-05
2.36931e-05
2.36946e-05
2.36955e-05
2.3692e-05
2.36955e-05
2.83906e-05
2.83565e-05
2.36941e-05
2.36937e-05
2.36941e-05
2.83576e-05
2.83899e-05
2.83576e-05
2.36946e-05
2.36945e-05
2.36947e-05
2.36945e-05
2.83892e-05
2.83541e-05
2.36931e-05
2.36946e-05
2.36931e-05
2.36946e-05
2.36955e-05
2.3692e-05
2.36955e-05
2.83904e-05
2.83569e-05
2.36941e-05
2.36937e-05
2.3694e-05
2.83583e-05
2.83903e-05
2.83574e-05
2.36946e-05
2.36945e-05
2.36947e-05
2.36945e-05
2.83884e-05
2.83541e-05
2.36931e-05
2.36946e-05
2.36931e-05
2.36946e-05
2.36955e-05
2.3692e-05
2.36955e-05
2.83907e-05
2.83568e-05
2.3694e-05
2.36937e-05
2.3694e-05
2.83592e-05
2.83903e-05
2.8357e-05
2.36947e-05
2.36945e-05
2.36947e-05
2.36945e-05
2.83877e-05
2.83546e-05
2.36931e-05
2.36946e-05
2.36931e-05
2.36946e-05
2.36955e-05
2.3692e-05
2.36955e-05
2.83906e-05
2.83565e-05
2.3694e-05
2.36937e-05
2.36941e-05
2.836e-05
2.83895e-05
2.8358e-05
2.36947e-05
2.36945e-05
2.36947e-05
2.36945e-05
2.83874e-05
2.83558e-05
2.36931e-05
2.36946e-05
2.36931e-05
2.36945e-05
2.36955e-05
2.3692e-05
2.36955e-05
2.83901e-05
2.83568e-05
2.3694e-05
2.36938e-05
2.36941e-05
2.83603e-05
2.83898e-05
2.83587e-05
2.36947e-05
2.36945e-05
2.36947e-05
2.36945e-05
2.83879e-05
2.83566e-05
2.3693e-05
2.36945e-05
2.36931e-05
2.36946e-05
2.36955e-05
2.36921e-05
2.36955e-05
2.839e-05
2.83572e-05
2.3694e-05
2.36937e-05
2.3694e-05
2.83606e-05
2.83908e-05
2.83582e-05
2.36947e-05
2.36945e-05
2.36947e-05
2.36945e-05
2.83889e-05
2.83562e-05
2.36931e-05
2.36946e-05
2.36931e-05
2.36946e-05
2.36955e-05
2.3692e-05
2.36955e-05
2.83904e-05
2.8357e-05
2.3694e-05
2.36937e-05
2.3694e-05
2.83609e-05
2.83909e-05
2.83576e-05
2.36947e-05
2.36945e-05
2.36947e-05
2.36945e-05
2.83891e-05
2.83555e-05
2.36931e-05
2.36946e-05
2.3693e-05
2.36946e-05
2.36955e-05
2.3692e-05
2.36955e-05
2.83904e-05
2.83566e-05
2.3694e-05
2.36937e-05
2.3694e-05
2.83608e-05
2.83907e-05
2.83571e-05
2.36947e-05
2.36945e-05
2.36947e-05
2.36945e-05
2.83885e-05
2.83555e-05
2.3693e-05
2.36946e-05
2.3693e-05
2.36946e-05
2.36955e-05
2.3692e-05
2.36955e-05
2.83899e-05
2.8357e-05
2.3694e-05
2.36937e-05
2.3694e-05
2.83605e-05
2.83904e-05
2.83567e-05
2.36947e-05
2.36945e-05
2.36947e-05
2.36945e-05
2.83883e-05
2.83558e-05
2.3693e-05
2.36946e-05
2.3693e-05
2.36946e-05
2.36955e-05
2.3692e-05
2.36955e-05
2.83898e-05
2.83575e-05
2.3694e-05
2.36937e-05
2.3694e-05
2.83607e-05
2.83899e-05
2.83565e-05
2.36947e-05
2.36945e-05
2.36947e-05
2.36945e-05
2.83885e-05
2.83555e-05
2.3693e-05
2.36946e-05
2.3693e-05
2.36946e-05
2.36955e-05
2.3692e-05
2.36955e-05
2.83903e-05
2.83575e-05
2.3694e-05
2.36937e-05
2.3694e-05
2.83613e-05
2.83894e-05
2.83566e-05
2.36947e-05
2.36945e-05
2.36946e-05
2.36945e-05
2.83884e-05
2.83557e-05
2.3693e-05
2.36946e-05
2.36929e-05
2.36945e-05
2.36955e-05
2.3692e-05
2.36955e-05
2.83905e-05
2.83574e-05
2.36939e-05
2.36936e-05
2.3694e-05
2.83612e-05
2.83889e-05
2.83574e-05
2.36946e-05
2.36945e-05
2.36946e-05
2.36944e-05
2.83883e-05
2.8356e-05
2.3693e-05
2.36946e-05
2.36929e-05
2.36945e-05
2.36955e-05
2.3692e-05
2.36955e-05
2.83906e-05
2.83574e-05
2.36939e-05
2.36936e-05
2.36939e-05
2.83604e-05
2.83891e-05
2.83584e-05
2.36946e-05
2.36944e-05
2.36946e-05
2.36944e-05
2.83887e-05
2.83557e-05
2.36929e-05
2.36946e-05
2.36929e-05
2.36945e-05
2.36955e-05
2.36919e-05
2.36955e-05
2.83907e-05
2.83571e-05
2.3694e-05
2.36936e-05
2.36939e-05
2.83598e-05
2.839e-05
2.83585e-05
2.36946e-05
2.36944e-05
2.36947e-05
2.36944e-05
2.83887e-05
2.83551e-05
2.36929e-05
2.36945e-05
2.36929e-05
2.36945e-05
2.36955e-05
2.36919e-05
2.36955e-05
2.83906e-05
2.83568e-05
2.3694e-05
2.36935e-05
2.36939e-05
2.83599e-05
2.83907e-05
2.83579e-05
2.36946e-05
2.36944e-05
2.36946e-05
2.36944e-05
2.83882e-05
2.83549e-05
2.36929e-05
2.36945e-05
2.36929e-05
2.36945e-05
2.36955e-05
2.36919e-05
2.36954e-05
2.83901e-05
2.83571e-05
2.36939e-05
2.36935e-05
2.36939e-05
2.83606e-05
2.83908e-05
2.83571e-05
2.36946e-05
2.36944e-05
2.36946e-05
2.36944e-05
2.83876e-05
2.83555e-05
2.3693e-05
2.36945e-05
2.36929e-05
2.36945e-05
2.36955e-05
2.36918e-05
2.36954e-05
2.83902e-05
2.83574e-05
2.36939e-05
2.36935e-05
2.36939e-05
2.83607e-05
2.83904e-05
2.83567e-05
2.36946e-05
2.36944e-05
2.36946e-05
2.36943e-05
2.83878e-05
2.83561e-05
2.3693e-05
2.36945e-05
2.36929e-05
2.36944e-05
2.36954e-05
2.36918e-05
2.36954e-05
2.83908e-05
2.83569e-05
2.36939e-05
2.36935e-05
2.36938e-05
2.83603e-05
2.83898e-05
2.83566e-05
2.36946e-05
2.36944e-05
2.36945e-05
2.36943e-05
2.83884e-05
2.83559e-05
2.36929e-05
2.36945e-05
2.36928e-05
2.36944e-05
2.36954e-05
2.36918e-05
2.36953e-05
2.83907e-05
2.83563e-05
2.36939e-05
2.36934e-05
2.36938e-05
2.83603e-05
2.83893e-05
2.83569e-05
2.36946e-05
2.36944e-05
2.36944e-05
2.36942e-05
2.83885e-05
2.83554e-05
2.36929e-05
2.36945e-05
2.36928e-05
2.36943e-05
2.36954e-05
2.36917e-05
2.36953e-05
2.83898e-05
2.83567e-05
2.36938e-05
2.36933e-05
2.36937e-05
2.83608e-05
2.83892e-05
2.83576e-05
2.36945e-05
2.36943e-05
2.36944e-05
2.36942e-05
2.83882e-05
2.83554e-05
2.36929e-05
2.36945e-05
2.36927e-05
2.36943e-05
2.36954e-05
2.36917e-05
2.36952e-05
2.83896e-05
2.83575e-05
2.36938e-05
2.36933e-05
2.36937e-05
2.8361e-05
2.83896e-05
2.8358e-05
2.36945e-05
2.36943e-05
2.36944e-05
2.36941e-05
2.83881e-05
2.83555e-05
2.36929e-05
2.36945e-05
2.36927e-05
2.36943e-05
2.36954e-05
2.36917e-05
2.36952e-05
2.83903e-05
2.83575e-05
2.36938e-05
2.36933e-05
2.36937e-05
2.83605e-05
2.83902e-05
2.83577e-05
2.36946e-05
2.36944e-05
2.36944e-05
2.36941e-05
2.83881e-05
2.83557e-05
2.36929e-05
2.36945e-05
2.36927e-05
2.36942e-05
2.36954e-05
2.36917e-05
2.36952e-05
2.83908e-05
2.83569e-05
2.36938e-05
2.36932e-05
2.36936e-05
2.83599e-05
2.83904e-05
2.83573e-05
2.36946e-05
2.36944e-05
2.36943e-05
2.36941e-05
2.83883e-05
2.83556e-05
2.3693e-05
2.36945e-05
2.36926e-05
2.36942e-05
2.36954e-05
2.36917e-05
2.36951e-05
2.83905e-05
2.83566e-05
2.36939e-05
2.36932e-05
2.36936e-05
2.83598e-05
2.83903e-05
2.83568e-05
2.36947e-05
2.36945e-05
2.36943e-05
2.3694e-05
2.83884e-05
2.83552e-05
2.3693e-05
2.36946e-05
2.36926e-05
2.36942e-05
2.36955e-05
2.36916e-05
2.36951e-05
2.83901e-05
2.83567e-05
2.3694e-05
2.36932e-05
2.36935e-05
2.83602e-05
2.83899e-05
2.83567e-05
2.36948e-05
2.36946e-05
2.36942e-05
2.3694e-05
2.83882e-05
2.83551e-05
2.36931e-05
2.36947e-05
2.36925e-05
2.36941e-05
2.36956e-05
2.36916e-05
2.3695e-05
2.839e-05
2.83568e-05
2.3694e-05
2.36931e-05
2.36935e-05
2.83603e-05
2.83895e-05
2.83569e-05
2.36949e-05
2.36947e-05
2.36942e-05
2.3694e-05
2.83878e-05
2.83553e-05
2.36933e-05
2.36948e-05
2.36925e-05
2.36941e-05
2.36957e-05
2.36915e-05
2.3695e-05
2.839e-05
2.8357e-05
2.36941e-05
2.36931e-05
2.36934e-05
2.83601e-05
2.83895e-05
2.8357e-05
2.36951e-05
2.36948e-05
2.36941e-05
2.36939e-05
2.83878e-05
2.83557e-05
2.36934e-05
2.3695e-05
2.36925e-05
2.3694e-05
2.36959e-05
2.36915e-05
2.36949e-05
2.839e-05
2.8357e-05
2.36943e-05
2.3693e-05
2.36933e-05
2.83605e-05
2.83896e-05
2.83569e-05
2.36952e-05
2.3695e-05
2.36941e-05
2.36938e-05
2.83882e-05
2.8356e-05
2.36936e-05
2.36952e-05
2.36924e-05
2.3694e-05
2.36961e-05
2.36914e-05
2.36949e-05
2.83902e-05
2.83569e-05
2.36945e-05
2.36929e-05
2.36933e-05
2.83609e-05
2.83896e-05
2.83572e-05
2.36955e-05
2.36953e-05
2.3694e-05
2.36938e-05
2.83886e-05
2.83559e-05
2.36939e-05
2.36955e-05
2.36924e-05
2.36939e-05
2.36964e-05
2.36914e-05
2.36949e-05
2.83902e-05
2.83571e-05
2.36947e-05
2.36929e-05
2.36933e-05
2.83605e-05
2.83896e-05
2.83582e-05
2.3696e-05
2.36958e-05
2.36941e-05
2.36939e-05
2.83888e-05
2.83563e-05
2.36944e-05
2.36959e-05
2.36925e-05
2.3694e-05
2.36968e-05
2.36915e-05
2.3695e-05
2.83903e-05
2.83578e-05
2.36952e-05
2.3693e-05
2.36934e-05
2.83604e-05
2.83903e-05
2.83592e-05
2.36967e-05
2.36965e-05
2.36945e-05
2.36942e-05
2.83892e-05
2.83567e-05
2.36951e-05
2.36966e-05
2.36928e-05
2.36943e-05
2.36975e-05
2.36917e-05
2.36952e-05
2.83909e-05
2.83582e-05
2.36959e-05
2.36932e-05
2.36936e-05
2.83603e-05
2.83912e-05
2.83595e-05
2.36977e-05
2.36975e-05
2.3695e-05
2.36948e-05
2.83893e-05
2.83569e-05
2.36961e-05
2.36976e-05
2.36934e-05
2.36949e-05
2.36985e-05
2.36923e-05
2.36958e-05
2.8391e-05
2.8359e-05
2.36969e-05
2.36938e-05
2.36941e-05
2.83599e-05
2.83912e-05
2.83566e-05
2.36992e-05
2.36989e-05
2.36895e-05
2.36893e-05
2.83892e-05
2.83541e-05
2.36976e-05
2.36991e-05
2.36879e-05
2.36893e-05
2.36999e-05
2.36869e-05
2.36902e-05
2.83912e-05
2.83567e-05
2.36983e-05
2.36882e-05
2.36885e-05
2.8357e-05
2.83863e-05
2.80327e-05
2.36943e-05
2.36941e-05
2.33295e-05
2.33292e-05
2.8384e-05
2.80316e-05
2.36926e-05
2.36942e-05
2.33291e-05
2.33281e-05
2.36951e-05
2.33289e-05
2.33297e-05
2.83864e-05
2.80322e-05
2.36933e-05
2.3329e-05
2.33293e-05
2.80337e-05
2.76556e-05
2.28623e-05
2.2862e-05
2.76549e-05
2.28622e-05
2.28609e-05
1.56304e-05
1.56299e-05
1.56304e-05
2.28625e-05
2.76552e-05
2.28624e-05
8.92562e-06
1.78459e-06
6.21395e-06
6.21883e-06
8.32113e-08
4.72319e-07
5.2145e-07
3.95205e-06
8.87154e-08
4.60525e-07
3.92412e-06
4.68023e-07
3.60643e-07
3.03238e-07
2.72733e-07
2.67972e-07
5.01779e-06
2.13445e-07
6.62424e-06
1.38159e-05
2.11568e-05
2.71388e-07
5.11232e-06
2.17595e-07
6.73224e-06
3.79261e-06
3.7841e-06
3.77359e-06
3.79903e-06
3.80357e-06
3.7944e-06
3.78437e-06
8.27315e-08
7.78935e-07
1.86275e-06
5.92426e-07
8.30988e-08
7.50261e-07
1.85376e-06
1.42346e-05
2.18083e-05
8.22891e-08
1.85469e-06
7.13407e-07
5.62693e-07
8.41062e-08
1.84601e-06
6.85797e-07
1.70448e-06
1.88986e-06
3.39385e-07
1.73638e-06
1.86508e-06
4.7909e-07
1.00538e-05
3.52087e-07
1.24513e-05
3.65574e-05
4.62375e-05
4.7477e-07
1.02529e-05
3.58965e-07
1.25413e-05
3.83494e-06
3.82519e-06
3.8158e-06
3.92752e-06