/*--------------------------------*- C++ -*----------------------------------*\
| =========                 |                                                 |
| \\      /  F ield         | OpenFOAM: The Open Source CFD Toolbox           |
|  \\    /   O peration     | Version:  v1906                                 |
|   \\  /    A nd           | Web:      www.OpenFOAM.com                      |
|    \\/     M anipulation  |                                                 |
\*---------------------------------------------------------------------------*/
FoamFile
{
    version     2.0;
    format      ascii;
    class       volScalarField;
    location    "125";
    object      nut;
}
// * * * * * * * * * * * * * * * * * * * * * * * * * * * * * * * * * * * * * //

dimensions      [0 2 -1 0 0 0 0];


internalField   nonuniform List<scalar> 
171728
(
3.78171e-05
4.13134e-06
4.19348e-06
2.00976e-06
3.8392e-05
4.52546e-06
4.61261e-06
1.98597e-06
3.97644e-05
5.07096e-06
5.26168e-06
2.02615e-06
4.10801e-05
5.60753e-06
5.98175e-06
2.12898e-06
4.23517e-05
6.17607e-06
6.78088e-06
2.30595e-06
4.35943e-05
6.76456e-06
7.66754e-06
2.57279e-06
4.47839e-05
7.39784e-06
8.43047e-06
2.92985e-06
4.59315e-05
8.13613e-06
9.32993e-06
3.32421e-06
4.70458e-05
9.01437e-06
9.96391e-06
3.7026e-06
4.81461e-05
1.0111e-05
1.08459e-05
4.05487e-06
4.92153e-05
1.14834e-05
1.19696e-05
4.44556e-06
5.03063e-05
1.31063e-05
1.31783e-05
4.97852e-06
5.13468e-05
1.55213e-05
1.44818e-05
5.60025e-06
5.241e-05
1.68368e-05
1.58264e-05
6.24484e-06
5.34057e-05
1.80541e-05
1.72826e-05
6.9585e-06
5.44533e-05
1.93189e-05
1.88562e-05
7.78664e-06
5.56235e-05
2.07662e-05
2.04488e-05
8.69194e-06
5.69765e-05
2.23876e-05
2.23293e-05
9.8363e-06
5.82632e-05
2.44527e-05
2.42688e-05
1.15343e-05
5.95935e-05
2.61683e-05
2.62144e-05
1.34673e-05
6.10641e-05
2.82512e-05
2.83514e-05
1.57351e-05
6.27277e-05
3.05398e-05
3.06156e-05
1.85603e-05
6.48161e-05
3.35886e-05
3.37077e-05
2.30031e-05
6.7384e-05
3.74658e-05
3.76646e-05
2.90654e-05
7.03745e-05
4.21341e-05
4.23253e-05
3.71534e-05
7.31868e-05
4.79455e-05
4.80024e-05
4.779e-05
7.64245e-05
5.63389e-05
5.64119e-05
6.00968e-05
8.19823e-05
6.82792e-05
6.8337e-05
7.32039e-05
8.93291e-05
8.14586e-05
8.14805e-05
8.52003e-05
9.84895e-05
9.39976e-05
9.40041e-05
9.51383e-05
0.000107544
0.000103421
0.000103422
0.000102076
0.000113252
0.000107982
0.000107983
0.000104727
0.000115633
0.000109543
0.000109543
0.000105597
0.000116351
0.000109957
0.000109956
0.000105817
0.00011652
0.00011005
0.000110049
0.000105907
0.00011655
0.00011006
0.00011006
0.000105884
0.000116556
0.000110064
0.000110063
0.000105889
0.000116557
0.000110064
0.000110063
0.00010589
0.000116558
0.000110063
0.000110063
0.000105892
0.000116559
0.000110064
0.000110064
0.000105891
0.00011656
0.000110065
0.000110064
0.00010589
0.000116561
0.000110066
0.000110065
0.00010589
0.000116561
0.000110066
0.000110064
0.000105889
0.000116562
0.000110066
0.000110065
0.000105888
0.000116562
0.000110067
0.000110065
0.000105888
0.000116562
0.000110068
0.000110065
0.000105892
0.000116563
0.000110067
0.000110065
0.000105892
0.000116563
0.000110068
0.000110065
0.000105884
0.000116564
0.000110068
0.000110065
0.000105889
0.000116564
0.000110068
0.000110065
0.000105896
0.000116563
0.000110068
0.000110065
0.000105885
0.000116563
0.000110068
0.000110065
0.000105884
0.000116563
0.000110069
0.000110065
0.000105907
0.000116564
0.000110069
0.000110065
0.00010593
0.000116564
0.000110068
0.000110065
0.000105927
0.000116564
0.000110069
0.000110065
0.000105913
0.000116564
0.000110069
0.000110065
0.0001059
0.000116564
0.000110069
0.000110065
0.000105887
0.000116564
0.000110069
0.000110065
0.000105878
0.000116564
0.000110069
0.000110065
0.000105876
0.000116564
0.000110069
0.000110065
0.000105878
0.000116564
0.000110069
0.000110065
0.000105883
0.000116564
0.000110068
0.000110065
0.000105889
0.000116564
0.000110068
0.000110065
0.000105894
0.000116564
0.000110069
0.000110065
0.000105897
0.000116564
0.000110069
0.000110065
0.000105898
0.000116564
0.000110069
0.000110065
0.000105899
0.000116564
0.000110068
0.000110064
0.000105898
0.000116564
0.000110068
0.000110064
0.000105897
0.000116564
0.000110068
0.000110064
0.000105899
0.000116564
0.000110068
0.000110064
0.000105902
0.000116564
0.000110068
0.000110064
0.000105899
0.000116564
0.000110068
0.000110064
0.000105894
0.000116564
0.000110068
0.000110064
0.000105891
0.000116564
0.000110068
0.000110064
0.000105894
0.000116564
0.000110068
0.000110063
0.000105898
0.000116564
0.000110068
0.000110063
0.000105898
0.000116564
0.000110068
0.000110063
0.000105896
0.000116564
0.000110068
0.000110063
0.000105897
0.000116564
0.000110068
0.000110064
0.0001059
0.000116564
0.000110068
0.000110064
0.000105899
0.000116564
0.000110068
0.000110064
0.000105895
0.000116564
0.000110069
0.000110064
0.000105892
0.000116564
0.000110069
0.000110065
0.000105893
0.000116564
0.00011007
0.000110065
0.000105896
0.000116564
0.00011007
0.000110066
0.000105897
0.000116565
0.000110071
0.000110066
0.000105897
0.000116565
0.000110072
0.000110067
0.0001059
0.000116565
0.000110074
0.000110069
0.000105902
0.000116566
0.000110078
0.000110073
0.000105899
0.000116566
0.000110083
0.000110078
0.000105899
0.000116568
0.000110093
0.000110088
0.000105899
0.00011657
0.00011011
0.000110105
0.000105898
0.000116553
0.000110094
0.000110089
0.000105906
0.000117409
0.000109793
0.000109789
0.000106099
2.14454e-06
2.98345e-06
2.79677e-06
2.3507e-06
2.65668e-06
3.2995e-06
3.85452e-05
3.8554e-05
3.88201e-05
3.86359e-05
3.2272e-06
2.47349e-06
2.33551e-06
3.18393e-06
3.13485e-06
2.02171e-06
2.13481e-06
2.15336e-06
4.08553e-06
3.79306e-06
4.33056e-06
3.97656e-06
2.33444e-06
2.31014e-06
3.66259e-06
4.26601e-06
3.91071e-06
4.55299e-06
3.50476e-06
4.39737e-06
3.73224e-06
2.32753e-06
2.3711e-06
4.24877e-06
4.47552e-06
4.51041e-06
1.99572e-06
2.15069e-06
2.20317e-06
4.45679e-06
4.09223e-06
4.84145e-06
4.47708e-06
2.30235e-06
2.34886e-06
4.03854e-06
4.69899e-06
4.47269e-06
5.18538e-06
3.86065e-06
4.9336e-06
4.27433e-06
2.37906e-06
2.51406e-06
4.63861e-06
5.07352e-06
5.0905e-06
2.02666e-06
2.21e-06
2.31142e-06
4.98474e-06
4.62469e-06
5.42642e-06
5.06825e-06
2.34711e-06
2.43388e-06
4.6286e-06
5.36667e-06
5.11682e-06
5.9389e-06
4.42395e-06
5.4734e-06
4.90087e-06
2.5326e-06
2.7755e-06
5.25017e-06
5.7991e-06
5.75698e-06
2.12306e-06
2.31732e-06
2.47758e-06
5.58442e-06
5.23263e-06
6.10244e-06
5.74324e-06
2.44027e-06
2.60591e-06
5.29165e-06
6.13893e-06
5.82562e-06
6.72965e-06
5.07594e-06
6.03691e-06
5.62737e-06
2.79068e-06
3.08613e-06
5.94463e-06
6.59738e-06
6.52079e-06
2.30264e-06
2.48271e-06
2.70707e-06
6.26917e-06
5.92962e-06
6.85303e-06
6.52889e-06
2.6056e-06
2.74389e-06
6.00656e-06
6.9348e-06
6.59513e-06
7.51385e-06
5.82432e-06
6.63122e-06
6.46012e-06
3.10324e-06
3.43866e-06
6.73043e-06
7.43819e-06
7.34898e-06
2.56913e-06
2.70724e-06
2.98414e-06
7.04981e-06
6.73245e-06
7.6773e-06
7.40542e-06
2.733e-06
2.87562e-06
6.79957e-06
7.69859e-06
7.38891e-06
8.28574e-06
6.68494e-06
7.25096e-06
7.41346e-06
3.45234e-06
3.73021e-06
7.55316e-06
8.23906e-06
8.19729e-06
2.92976e-06
2.98043e-06
3.30253e-06
7.8994e-06
7.61928e-06
8.53536e-06
8.33935e-06
2.85919e-06
3.05689e-06
7.57296e-06
8.46736e-06
8.18557e-06
9.06719e-06
7.65754e-06
7.93912e-06
8.44471e-06
3.73461e-06
3.92168e-06
8.40426e-06
9.1205e-06
9.00558e-06
3.33137e-06
3.2916e-06
3.59103e-06
8.75794e-06
8.60202e-06
9.44629e-06
9.38574e-06
3.04165e-06
3.33716e-06
8.3825e-06
9.26444e-06
8.99622e-06
9.92578e-06
8.71856e-06
8.79036e-06
9.50678e-06
3.90821e-06
4.1597e-06
9.19691e-06
9.79983e-06
9.76267e-06
3.7161e-06
3.57545e-06
3.91067e-06
9.68263e-06
9.65208e-06
1.04116e-05
1.04284e-05
3.32365e-06
3.75784e-06
9.2255e-06
1.01782e-05
9.87257e-06
1.09191e-05
9.79372e-06
9.81398e-06
1.05924e-05
4.13377e-06
4.37623e-06
9.97184e-06
1.05818e-05
1.06365e-05
4.07462e-06
3.89193e-06
4.27795e-06
1.06725e-05
1.07246e-05
1.14936e-05
1.15787e-05
3.74908e-06
4.33511e-06
1.01011e-05
1.11939e-05
1.08349e-05
1.20657e-05
1.08559e-05
1.11258e-05
1.16934e-05
4.35243e-06
4.56559e-06
1.08705e-05
1.16999e-05
1.16399e-05
4.46418e-06
4.26155e-06
4.82448e-06
1.17844e-05
1.18426e-05
1.27705e-05
1.26579e-05
4.33144e-06
5.07962e-06
1.1066e-05
1.23489e-05
1.19402e-05
1.33101e-05
1.19684e-05
1.26172e-05
1.28648e-05
4.53396e-06
4.99025e-06
1.19147e-05
1.28559e-05
1.27713e-05
4.99615e-06
4.81208e-06
5.49819e-06
1.30968e-05
1.29376e-05
1.40844e-05
1.38066e-05
5.08094e-06
5.95175e-06
1.22873e-05
1.36509e-05
1.32482e-05
1.46429e-05
1.31699e-05
1.49836e-05
1.40793e-05
4.96855e-06
5.6403e-06
1.30759e-05
1.41487e-05
1.40211e-05
5.63973e-06
5.48657e-06
6.4242e-06
1.44609e-05
1.41194e-05
1.55933e-05
1.50747e-05
5.94316e-06
6.61519e-06
1.35841e-05
1.49881e-05
1.50309e-05
1.59043e-05
1.44164e-05
1.65577e-05
1.54201e-05
5.61058e-06
6.3955e-06
1.43508e-05
1.5498e-05
1.53633e-05
6.33385e-06
6.36955e-06
7.51258e-06
1.59585e-05
1.53941e-05
1.71681e-05
1.65469e-05
6.53837e-06
7.19961e-06
1.55655e-05
1.62059e-05
1.70984e-05
1.73486e-05
1.57267e-05
1.77399e-05
1.67525e-05
6.30096e-06
7.22807e-06
1.56842e-05
1.69404e-05
1.67432e-05
7.07167e-06
7.41845e-06
8.30621e-06
1.75444e-05
1.69333e-05
1.86813e-05
1.82465e-05
7.0964e-06
8.10476e-06
1.75258e-05
1.76733e-05
1.86473e-05
1.87826e-05
1.70975e-05
1.89775e-05
1.81957e-05
7.10732e-06
8.17638e-06
1.70897e-05
1.84147e-05
1.82395e-05
7.93132e-06
8.16821e-06
9.32092e-06
1.91409e-05
1.87661e-05
2.04327e-05
2.02055e-05
7.97163e-06
9.25371e-06
1.9066e-05
1.92211e-05
2.01832e-05
2.01367e-05
1.86298e-05
2.03599e-05
1.97408e-05
8.02871e-06
9.15865e-06
1.86825e-05
1.99961e-05
1.98433e-05
8.88276e-06
9.14284e-06
1.0698e-05
2.08935e-05
2.07618e-05
2.23422e-05
2.2349e-05
9.06929e-06
1.05068e-05
2.06232e-05
2.04912e-05
2.19304e-05
2.17546e-05
2.01677e-05
2.20267e-05
2.16403e-05
8.95615e-06
1.03327e-05
2.02717e-05
2.18933e-05
2.16907e-05
1.00867e-05
1.04394e-05
1.20294e-05
2.2786e-05
2.27127e-05
2.41639e-05
2.38554e-05
1.02382e-05
1.16634e-05
2.23117e-05
2.21697e-05
2.36757e-05
2.35993e-05
2.20791e-05
2.38754e-05
2.35294e-05
1.00701e-05
1.16495e-05
2.21641e-05
2.37683e-05
2.36242e-05
1.14489e-05
1.20544e-05
1.37049e-05
2.46647e-05
2.43789e-05
2.60748e-05
2.59969e-05
1.17263e-05
1.34302e-05
2.41653e-05
2.41222e-05
2.56164e-05
2.56955e-05
2.41005e-05
2.57961e-05
2.55249e-05
1.16907e-05
1.34487e-05
2.41826e-05
2.57602e-05
2.56828e-05
1.32899e-05
1.38857e-05
1.57125e-05
2.64997e-05
2.64327e-05
2.78702e-05
2.77578e-05
1.36148e-05
1.55233e-05
2.6076e-05
2.61692e-05
2.75493e-05
2.76538e-05
2.5952e-05
2.7651e-05
2.76414e-05
1.36478e-05
1.5535e-05
2.60946e-05
2.77586e-05
2.77049e-05
1.54666e-05
1.59729e-05
1.83836e-05
2.8383e-05
2.82713e-05
3.00265e-05
2.98804e-05
1.57879e-05
1.81984e-05
2.81038e-05
2.82172e-05
2.98144e-05
2.98771e-05
2.81932e-05
2.99691e-05
2.96135e-05
1.58101e-05
1.82625e-05
2.82968e-05
3.00353e-05
2.97798e-05
1.80811e-05
1.88464e-05
2.23729e-05
3.06237e-05
3.04594e-05
3.27098e-05
3.25563e-05
1.86501e-05
2.21688e-05
3.04262e-05
3.0475e-05
3.26415e-05
3.26934e-05
3.02455e-05
3.27129e-05
3.28401e-05
1.87216e-05
2.23092e-05
3.03436e-05
3.2837e-05
3.27653e-05
2.22506e-05
2.31279e-05
2.81699e-05
3.35598e-05
3.33892e-05
3.66413e-05
3.62144e-05
2.29182e-05
2.78731e-05
3.35164e-05
3.35396e-05
3.63886e-05
3.63083e-05
3.37926e-05
3.64519e-05
3.66225e-05
2.30658e-05
2.80294e-05
3.37376e-05
3.66094e-05
3.67343e-05
2.79586e-05
2.9279e-05
3.57731e-05
3.77799e-05
3.72672e-05
4.13179e-05
4.08023e-05
2.89768e-05
3.55994e-05
3.74202e-05
3.7342e-05
4.08413e-05
4.08572e-05
3.76126e-05
4.08782e-05
4.09659e-05
2.91418e-05
3.57597e-05
3.77573e-05
4.11065e-05
4.11133e-05
3.56703e-05
3.72234e-05
4.58414e-05
4.25373e-05
4.20826e-05
4.65965e-05
4.62979e-05
3.70869e-05
4.5797e-05
4.20912e-05
4.21337e-05
4.627e-05
4.6341e-05
4.22089e-05
4.63486e-05
4.63607e-05
3.72287e-05
4.58429e-05
4.23461e-05
4.64218e-05
4.6475e-05
4.58598e-05
4.77739e-05
5.79611e-05
4.8164e-05
4.78925e-05
5.40049e-05
5.38107e-05
4.77337e-05
5.79151e-05
4.78658e-05
4.79367e-05
5.38029e-05
5.38647e-05
4.7943e-05
5.38635e-05
5.38346e-05
4.77708e-05
5.79569e-05
4.80475e-05
5.39297e-05
5.38998e-05
5.79341e-05
6.01286e-05
7.10081e-05
5.64596e-05
5.62962e-05
6.51496e-05
6.50698e-05
6.00828e-05
7.09853e-05
5.62947e-05
5.63526e-05
6.5078e-05
6.51196e-05
5.63145e-05
6.5095e-05
6.50784e-05
6.01299e-05
7.10361e-05
5.63666e-05
6.51618e-05
6.51017e-05
7.09909e-05
7.32182e-05
8.32902e-05
6.83206e-05
6.8261e-05
7.8152e-05
7.81274e-05
7.32005e-05
8.3286e-05
6.82701e-05
6.83049e-05
7.81361e-05
7.81514e-05
6.82679e-05
7.81423e-05
7.81337e-05
7.32458e-05
8.33048e-05
6.82851e-05
7.81709e-05
7.81402e-05
8.32862e-05
8.52039e-05
9.36422e-05
8.14652e-05
8.14467e-05
9.10465e-05
9.10348e-05
8.5201e-05
9.36412e-05
8.14548e-05
8.14646e-05
9.10438e-05
9.10415e-05
8.14535e-05
9.10498e-05
9.10466e-05
8.52159e-05
9.36456e-05
8.14583e-05
9.10589e-05
9.10483e-05
9.36429e-05
9.51379e-05
0.000101156
9.39934e-05
9.39829e-05
0.00010151
0.0001015
9.51372e-05
0.000101155
9.39927e-05
9.39869e-05
0.000101512
0.0001015
9.39953e-05
0.000101519
0.000101513
9.51401e-05
0.000101152
9.39971e-05
0.00010152
0.000101517
0.000101154
0.000102078
0.000104439
0.000103412
0.000103402
0.000107209
0.000107197
0.000102077
0.000104439
0.000103415
0.000103401
0.000107213
0.000107195
0.000103416
0.000107219
0.000107214
0.000102074
0.000104437
0.00010342
0.00010722
0.000107219
0.000104442
0.000104725
0.000105522
0.000107971
0.000107959
0.000109302
0.00010929
0.000104724
0.000105521
0.000107975
0.000107957
0.000109308
0.000109288
0.000107977
0.000109315
0.000109308
0.000104722
0.000105519
0.000107982
0.000109315
0.000109314
0.000105524
0.000105596
0.000105813
0.000109531
0.000109518
0.000109887
0.000109874
0.000105595
0.000105812
0.000109536
0.000109516
0.000109893
0.000109872
0.000109536
0.000109899
0.000109892
0.000105592
0.000105808
0.000109542
0.000109899
0.000109898
0.000105813
0.000105816
0.000105925
0.000109944
0.000109931
0.000110027
0.000110014
0.000105815
0.000105925
0.000109951
0.00010993
0.000110034
0.000110012
0.000109949
0.00011004
0.000110032
0.000105811
0.000105921
0.000109956
0.000110039
0.000110038
0.000105925
0.000105907
0.000105907
0.000110037
0.000110024
0.000110048
0.000110034
0.000105907
0.000105906
0.000110044
0.000110023
0.000110054
0.000110033
0.000110042
0.00011006
0.000110052
0.000105903
0.000105902
0.000110048
0.000110059
0.000110058
0.000105906
0.000105884
0.000105904
0.000110048
0.000110034
0.000110049
0.000110036
0.000105884
0.000105903
0.000110054
0.000110033
0.000110056
0.000110035
0.000110052
0.000110062
0.000110053
0.00010588
0.0001059
0.000110058
0.000110061
0.000110059
0.000105904
0.000105888
0.000105916
0.000110051
0.000110038
0.000110053
0.000110039
0.000105887
0.000105915
0.000110059
0.000110037
0.00011006
0.000110038
0.000110055
0.000110065
0.000110056
0.000105884
0.00010591
0.000110061
0.000110064
0.000110062
0.000105913
0.000105892
0.00010591
0.000110052
0.000110038
0.000110051
0.000110038
0.000105891
0.00010591
0.000110059
0.000110038
0.000110058
0.000110037
0.000110055
0.000110063
0.000110055
0.000105887
0.000105907
0.000110061
0.000110063
0.000110061
0.00010591
0.000105893
0.000105911
0.000110051
0.000110038
0.000110052
0.000110038
0.000105893
0.000105911
0.000110058
0.000110037
0.000110059
0.000110037
0.000110055
0.000110064
0.000110055
0.000105889
0.000105908
0.000110061
0.000110063
0.000110061
0.00010591
0.000105892
0.00010591
0.000110052
0.000110038
0.000110052
0.000110038
0.000105892
0.000105909
0.000110059
0.000110037
0.000110059
0.000110037
0.000110056
0.000110064
0.000110055
0.00010589
0.000105906
0.000110061
0.000110063
0.000110061
0.000105909
0.000105891
0.000105914
0.000110052
0.000110039
0.000110052
0.000110039
0.00010589
0.00010591
0.00011006
0.000110037
0.00011006
0.000110038
0.000110055
0.000110066
0.000110056
0.000105889
0.000105906
0.000110061
0.000110064
0.000110062
0.00010591
0.000105893
0.000105917
0.000110052
0.000110039
0.000110053
0.00011004
0.00010589
0.00010591
0.00011006
0.000110038
0.00011006
0.000110038
0.000110056
0.000110066
0.000110056
0.000105889
0.000105905
0.000110062
0.000110064
0.000110062
0.00010591
0.000105898
0.000105918
0.000110053
0.00011004
0.000110053
0.000110041
0.00010589
0.000105911
0.00011006
0.000110038
0.000110062
0.000110039
0.000110056
0.000110067
0.000110057
0.000105888
0.000105904
0.000110062
0.000110065
0.000110063
0.00010591
0.000105901
0.000105917
0.000110053
0.000110041
0.000110053
0.000110041
0.000105889
0.000105912
0.000110061
0.000110039
0.00011006
0.000110039
0.000110057
0.000110067
0.000110057
0.000105886
0.000105906
0.000110063
0.000110065
0.000110063
0.00010591
0.000105902
0.000105913
0.000110053
0.000110042
0.000110054
0.000110041
0.000105891
0.000105911
0.000110061
0.000110039
0.00011006
0.000110039
0.000110057
0.000110067
0.000110057
0.000105889
0.000105905
0.000110063
0.000110065
0.000110063
0.000105914
0.0001059
0.00010591
0.000110054
0.000110042
0.000110054
0.000110042
0.00010589
0.00010591
0.00011006
0.000110039
0.000110061
0.000110039
0.000110057
0.000110067
0.000110057
0.000105888
0.000105905
0.000110063
0.000110065
0.000110063
0.000105911
0.000105895
0.000105915
0.000110054
0.000110042
0.000110054
0.000110043
0.000105888
0.000105913
0.000110061
0.000110039
0.000110061
0.00011004
0.000110057
0.000110068
0.000110058
0.000105887
0.000105906
0.000110063
0.000110065
0.000110063
0.000105905
0.000105898
0.000105914
0.000110054
0.000110042
0.000110055
0.000110043
0.000105892
0.000105907
0.000110061
0.00011004
0.000110061
0.00011004
0.000110058
0.000110068
0.000110057
0.000105889
0.000105901
0.000110063
0.000110065
0.000110063
0.000105913
0.000105898
0.000105908
0.000110055
0.000110043
0.000110054
0.000110043
0.000105887
0.000105908
0.000110061
0.000110039
0.000110061
0.000110039
0.000110058
0.000110068
0.000110057
0.000105884
0.000105905
0.000110063
0.000110065
0.000110063
0.000105916
0.00010589
0.00010592
0.000110055
0.000110043
0.000110054
0.000110043
0.000105882
0.000105925
0.000110061
0.000110039
0.00011006
0.000110039
0.000110057
0.000110068
0.000110058
0.000105881
0.00010592
0.000110063
0.000110065
0.000110063
0.000105904
0.000105894
0.000105931
0.000110055
0.000110043
0.000110055
0.000110043
0.000105898
0.000105927
0.00011006
0.000110039
0.000110061
0.00011004
0.000110058
0.000110069
0.000110058
0.000105897
0.000105918
0.000110063
0.000110065
0.000110063
0.000105912
0.000105911
0.000105918
0.000110055
0.000110043
0.000110055
0.000110043
0.000105912
0.000105904
0.000110061
0.000110039
0.00011006
0.000110039
0.000110057
0.000110068
0.000110058
0.000105906
0.000105899
0.000110062
0.000110065
0.000110063
0.000105935
0.000105911
0.000105897
0.000110055
0.000110043
0.000110055
0.000110043
0.0001059
0.000105889
0.00011006
0.000110039
0.000110061
0.000110039
0.000110058
0.000110068
0.000110058
0.000105892
0.000105891
0.000110063
0.000110065
0.000110064
0.00010594
0.000105891
0.000105889
0.000110055
0.000110043
0.000110055
0.000110043
0.000105877
0.000105896
0.00011006
0.000110039
0.00011006
0.00011004
0.000110058
0.000110069
0.000110058
0.000105877
0.000105899
0.000110063
0.000110065
0.000110063
0.00010592
0.000105874
0.0001059
0.000110055
0.000110043
0.000110056
0.000110044
0.000105872
0.000105914
0.00011006
0.000110039
0.00011006
0.000110039
0.000110058
0.000110069
0.000110058
0.000105878
0.00010591
0.000110063
0.000110065
0.000110063
0.000105899
0.000105874
0.000105914
0.000110055
0.000110043
0.000110056
0.000110043
0.000105886
0.000105918
0.00011006
0.000110039
0.00011006
0.000110039
0.000110058
0.000110069
0.000110058
0.00010589
0.00010591
0.000110063
0.000110065
0.000110063
0.000105883
0.000105885
0.000105915
0.000110056
0.000110044
0.000110056
0.000110043
0.000105897
0.000105911
0.00011006
0.000110039
0.00011006
0.000110039
0.000110058
0.000110069
0.000110058
0.000105897
0.000105898
0.000110063
0.000110065
0.000110063
0.00010587
0.000105892
0.000105907
0.000110056
0.000110043
0.000110056
0.000110043
0.000105896
0.000105901
0.00011006
0.000110039
0.00011006
0.000110039
0.000110058
0.000110069
0.000110058
0.000105889
0.00010589
0.000110063
0.000110064
0.000110063
0.000105864
0.000105888
0.0001059
0.000110056
0.000110043
0.000110056
0.000110043
0.00010589
0.000105894
0.00011006
0.000110039
0.00011006
0.000110039
0.000110058
0.000110068
0.000110058
0.000105877
0.00010589
0.000110063
0.000110064
0.000110062
0.000105862
0.000105879
0.000105902
0.000110056
0.000110044
0.000110056
0.000110044
0.000105881
0.00010589
0.00011006
0.000110039
0.00011006
0.000110039
0.000110058
0.000110068
0.000110057
0.000105872
0.000105893
0.000110063
0.000110064
0.000110062
0.000105864
0.000105876
0.000105906
0.000110056
0.000110044
0.000110056
0.000110044
0.000105873
0.000105892
0.00011006
0.000110039
0.00011006
0.000110039
0.000110058
0.000110068
0.000110057
0.000105872
0.000105895
0.000110063
0.000110065
0.000110062
0.000105868
0.000105878
0.000105904
0.000110056
0.000110044
0.000110056
0.000110043
0.000105869
0.000105895
0.00011006
0.000110039
0.00011006
0.000110039
0.000110058
0.000110068
0.000110057
0.000105873
0.000105895
0.000110063
0.000110065
0.000110063
0.000105875
0.000105876
0.000105905
0.000110056
0.000110043
0.000110056
0.000110043
0.000105868
0.000105902
0.00011006
0.000110039
0.00011006
0.000110039
0.000110057
0.000110068
0.000110057
0.000105872
0.000105895
0.000110063
0.000110065
0.000110063
0.00010588
0.000105873
0.000105911
0.000110056
0.000110043
0.000110056
0.000110043
0.00010587
0.000105909
0.00011006
0.000110039
0.00011006
0.000110039
0.000110058
0.000110068
0.000110057
0.00010587
0.000105897
0.000110063
0.000110065
0.000110063
0.000105882
0.000105877
0.000105914
0.000110056
0.000110043
0.000110057
0.000110043
0.000105876
0.000105911
0.00011006
0.000110039
0.00011006
0.000110039
0.000110058
0.000110069
0.000110057
0.000105871
0.000105899
0.000110063
0.000110065
0.000110062
0.000105884
0.000105882
0.000105909
0.000110057
0.000110043
0.000110057
0.000110043
0.00010588
0.000105907
0.00011006
0.000110039
0.00011006
0.000110039
0.000110058
0.000110068
0.000110058
0.000105873
0.000105898
0.000110063
0.000110064
0.000110062
0.000105886
0.000105881
0.000105905
0.000110057
0.000110043
0.000110056
0.000110043
0.000105879
0.000105904
0.00011006
0.000110039
0.00011006
0.000110039
0.000110058
0.000110068
0.000110058
0.000105872
0.000105897
0.000110062
0.000110064
0.000110062
0.000105885
0.000105878
0.000105902
0.000110056
0.000110043
0.000110056
0.000110043
0.000105875
0.000105905
0.00011006
0.000110039
0.00011006
0.000110039
0.000110058
0.000110068
0.000110058
0.00010587
0.0001059
0.000110062
0.000110064
0.000110062
0.000105883
0.000105875
0.000105901
0.000110056
0.000110043
0.000110056
0.000110043
0.000105875
0.000105906
0.00011006
0.000110039
0.000110059
0.000110039
0.000110058
0.000110068
0.000110058
0.000105871
0.000105903
0.000110062
0.000110064
0.000110062
0.000105886
0.000105872
0.000105901
0.000110056
0.000110043
0.000110056
0.000110043
0.000105876
0.000105904
0.000110059
0.000110039
0.000110059
0.000110039
0.000110058
0.000110068
0.000110058
0.000105875
0.000105902
0.000110062
0.000110064
0.000110062
0.000105889
0.00010587
0.000105903
0.000110056
0.000110043
0.000110056
0.000110043
0.000105875
0.000105906
0.000110059
0.000110039
0.000110059
0.000110039
0.000110058
0.000110068
0.000110058
0.000105875
0.0001059
0.000110062
0.000110064
0.000110062
0.000105887
0.000105869
0.000105909
0.000110056
0.000110043
0.000110056
0.000110043
0.000105876
0.000105907
0.000110059
0.000110039
0.000110059
0.000110039
0.000110058
0.000110068
0.000110057
0.000105875
0.000105899
0.000110062
0.000110064
0.000110062
0.000105882
0.000105873
0.000105914
0.000110056
0.000110043
0.000110056
0.000110043
0.000105878
0.000105904
0.000110059
0.000110039
0.000110059
0.000110038
0.000110058
0.000110068
0.000110057
0.000105875
0.000105898
0.000110062
0.000110064
0.000110062
0.000105878
0.000105879
0.000105913
0.000110056
0.000110043
0.000110056
0.000110043
0.000105876
0.000105901
0.000110059
0.000110039
0.000110059
0.000110038
0.000110058
0.000110068
0.000110057
0.000105873
0.000105897
0.000110062
0.000110064
0.000110062
0.00010588
0.000105881
0.000105907
0.000110056
0.000110043
0.000110056
0.000110043
0.000105872
0.000105902
0.000110059
0.000110039
0.000110059
0.000110038
0.000110057
0.000110067
0.000110057
0.000105871
0.000105899
0.000110062
0.000110064
0.000110062
0.000105884
0.000105879
0.000105902
0.000110056
0.000110043
0.000110056
0.000110043
0.000105871
0.000105907
0.000110059
0.000110038
0.000110059
0.000110039
0.000110057
0.000110067
0.000110057
0.000105873
0.000105899
0.000110062
0.000110063
0.000110061
0.000105885
0.000105875
0.000105901
0.000110056
0.000110042
0.000110056
0.000110043
0.000105874
0.000105909
0.000110059
0.000110038
0.000110059
0.000110038
0.000110057
0.000110067
0.000110057
0.000105875
0.000105896
0.000110062
0.000110063
0.000110061
0.000105882
0.000105872
0.000105902
0.000110055
0.000110042
0.000110055
0.000110043
0.000105877
0.000105906
0.000110059
0.000110038
0.000110059
0.000110038
0.000110057
0.000110067
0.000110056
0.000105873
0.000105895
0.000110061
0.000110063
0.000110061
0.000105883
0.000105871
0.000105906
0.000110055
0.000110042
0.000110055
0.000110042
0.000105876
0.000105904
0.000110059
0.000110038
0.000110059
0.000110038
0.000110057
0.000110067
0.000110056
0.000105869
0.000105899
0.000110061
0.000110063
0.000110061
0.000105886
0.000105872
0.00010591
0.000110055
0.000110042
0.000110055
0.000110042
0.000105874
0.000105905
0.000110059
0.000110038
0.000110059
0.000110038
0.000110057
0.000110067
0.000110056
0.00010587
0.000105902
0.000110061
0.000110063
0.000110061
0.000105887
0.000105875
0.00010591
0.000110056
0.000110043
0.000110055
0.000110042
0.000105874
0.000105905
0.000110059
0.000110038
0.000110059
0.000110038
0.000110057
0.000110068
0.000110056
0.000105875
0.0001059
0.000110062
0.000110063
0.000110061
0.000105883
0.000105878
0.000105907
0.000110056
0.000110043
0.000110055
0.000110042
0.000105875
0.000105906
0.000110059
0.000110039
0.000110059
0.000110038
0.000110057
0.000110068
0.000110057
0.000105875
0.000105897
0.000110062
0.000110063
0.000110061
0.000105879
0.000105878
0.000105904
0.000110056
0.000110043
0.000110055
0.000110043
0.000105875
0.000105905
0.00011006
0.000110039
0.000110059
0.000110038
0.000110058
0.000110068
0.000110057
0.000105873
0.000105896
0.000110062
0.000110063
0.000110061
0.000105879
0.000105876
0.000105902
0.000110057
0.000110044
0.000110056
0.000110043
0.000105875
0.000105903
0.00011006
0.000110039
0.000110059
0.000110038
0.000110058
0.000110068
0.000110057
0.000105871
0.000105897
0.000110063
0.000110063
0.000110061
0.000105882
0.000105873
0.000105902
0.000110057
0.000110044
0.000110056
0.000110043
0.000105873
0.000105903
0.00011006
0.00011004
0.000110059
0.000110039
0.000110058
0.000110068
0.000110057
0.000105871
0.000105898
0.000110063
0.000110064
0.000110062
0.000105883
0.000105872
0.000105904
0.000110058
0.000110045
0.000110056
0.000110043
0.000105872
0.000105906
0.000110061
0.000110041
0.00011006
0.000110039
0.000110059
0.000110068
0.000110057
0.000105871
0.000105899
0.000110064
0.000110064
0.000110062
0.000105882
0.000105872
0.000105905
0.000110059
0.000110046
0.000110057
0.000110044
0.000105874
0.000105909
0.000110062
0.000110041
0.00011006
0.000110039
0.00011006
0.000110069
0.000110058
0.000105872
0.000105899
0.000110064
0.000110064
0.000110062
0.000105885
0.000105874
0.000105906
0.00011006
0.000110047
0.000110058
0.000110045
0.000105877
0.00010591
0.000110063
0.000110043
0.000110061
0.00011004
0.000110061
0.00011007
0.000110059
0.000105873
0.000105899
0.000110066
0.000110065
0.000110063
0.000105887
0.000105874
0.000105909
0.000110062
0.000110049
0.00011006
0.000110047
0.000105879
0.000105908
0.000110065
0.000110045
0.000110063
0.000110042
0.000110063
0.000110072
0.000110061
0.000105873
0.000105901
0.000110068
0.000110067
0.000110065
0.000105885
0.000105875
0.000105915
0.000110065
0.000110052
0.000110064
0.000110051
0.000105879
0.00010591
0.000110069
0.000110048
0.000110067
0.000110046
0.000110066
0.000110076
0.000110065
0.000105874
0.000105906
0.000110071
0.000110071
0.000110069
0.000105883
0.000105882
0.000105921
0.000110071
0.000110058
0.000110071
0.000110058
0.000105882
0.000105914
0.000110074
0.000110054
0.000110074
0.000110053
0.000110072
0.000110083
0.000110072
0.000105879
0.000105911
0.000110077
0.000110078
0.000110076
0.000105884
0.000105889
0.000105924
0.000110081
0.000110068
0.000110084
0.000110071
0.000105885
0.000105918
0.000110084
0.000110063
0.000110087
0.000110067
0.000110082
0.000110096
0.000110085
0.000105884
0.000105917
0.000110086
0.000110091
0.00011009
0.000105884
0.000105893
0.000105928
0.000110097
0.000110085
0.000110108
0.000110097
0.000105889
0.000105923
0.000110101
0.000110081
0.000110112
0.000110092
0.000110099
0.00011012
0.000110108
0.00010589
0.000105922
0.000110104
0.000110116
0.000110115
0.000105893
0.000105898
0.000105957
0.000110081
0.00011007
0.000110297
0.000110285
0.000105893
0.000105956
0.000110086
0.000110065
0.000110302
0.00011028
0.000110082
0.000110311
0.000110297
0.000105895
0.000105952
0.000110089
0.000110306
0.000110304
0.000105959
0.000106093
0.00010978
0.000109769
0.000106092
0.000109784
0.000109764
0.000117407
0.000117405
0.000117408
0.00010978
0.000106088
0.000109786
8.69005e-05
1.87238e-05
6.05627e-05
6.05052e-05
6.14867e-07
3.32705e-06
1.68305e-06
3.93549e-05
6.50187e-07
3.28927e-06
3.9465e-05
1.70366e-06
2.06453e-06
9.92004e-07
1.77298e-06
1.01212e-06
1.3573e-05
8.97247e-07
1.52446e-05
1.0867e-05
1.3032e-05
1.02162e-06
1.36994e-05
9.02279e-07
1.53615e-05
3.7828e-05
3.81283e-05
3.7921e-05
3.8053e-05
3.80483e-05
3.83677e-05
3.81608e-05
6.0151e-07
6.07752e-07
1.90741e-05
4.16993e-06
6.08471e-07
7.38752e-07
1.90058e-05
1.09956e-05
1.32342e-05
5.71966e-07
1.97838e-05
5.33992e-07
4.24207e-06
5.93749e-07
1.9722e-05
6.57313e-07
1.29328e-06
1.50029e-06
1.99791e-06
1.5216e-06
1.7038e-06
1.24432e-06
1.878e-05
1.11687e-06
2.08616e-05
1.71193e-05
1.92543e-05
1.25342e-06
1.89641e-05
1.1188e-06
2.09287e-05
3.83836e-05
3.87042e-05
3.85008e-05