/*--------------------------------*- C++ -*----------------------------------*\
| =========                 |                                                 |
| \\      /  F ield         | OpenFOAM: The Open Source CFD Toolbox           |
|  \\    /   O peration     | Version:  v1906                                 |
|   \\  /    A nd           | Web:      www.OpenFOAM.com                      |
|    \\/     M anipulation  |                                                 |
\*---------------------------------------------------------------------------*/
FoamFile
{
    version     2.0;
    format      ascii;
    class       volScalarField;
    location    "125";
    object      p;
}
// * * * * * * * * * * * * * * * * * * * * * * * * * * * * * * * * * * * * * //

dimensions      [0 2 -2 0 0 0 0];


internalField   nonuniform List<scalar> 
171728
(
0.00352312
0.00352263
0.0035226
0.00352416
0.00348653
0.00348558
0.00348565
0.00348868
0.00344992
0.00344869
0.00344873
0.00345098
0.00340493
0.00340391
0.00340392
0.00340651
0.00335682
0.00335581
0.00335577
0.0033585
0.0033087
0.00330777
0.00330777
0.00331043
0.00326067
0.00325984
0.00325983
0.00326257
0.00321356
0.00321282
0.00321282
0.00321553
0.00316739
0.00316673
0.0031667
0.00316945
0.00312224
0.00312163
0.00312164
0.00312439
0.00307799
0.00307746
0.00307748
0.00308021
0.00303448
0.00303407
0.00303403
0.00303674
0.0029915
0.00299117
0.00299113
0.00299382
0.00294891
0.00294856
0.00294862
0.00295129
0.00290664
0.00290628
0.00290639
0.00290906
0.00286466
0.0028645
0.00286449
0.00286713
0.0028231
0.00282292
0.00282292
0.0028255
0.00278194
0.00278173
0.00278174
0.00278428
0.00274118
0.002741
0.002741
0.00274352
0.00270085
0.00270066
0.00270063
0.00270309
0.00266106
0.00266079
0.0026608
0.00266322
0.00262195
0.00262166
0.00262165
0.00262386
0.00258389
0.00258358
0.00258358
0.00258592
0.00254752
0.00254726
0.00254725
0.00254963
0.0025121
0.00251186
0.00251188
0.00251426
0.00247619
0.002476
0.00247601
0.00247848
0.00243907
0.00243887
0.00243887
0.00244137
0.00240118
0.00240096
0.00240096
0.00240336
0.00236322
0.00236305
0.00236306
0.00236531
0.00232579
0.00232565
0.00232565
0.00232781
0.00228905
0.00228893
0.00228893
0.00229105
0.00225283
0.00225275
0.00225275
0.00225485
0.00221691
0.00221685
0.00221685
0.00221896
0.00218109
0.00218104
0.00218104
0.00218315
0.00214529
0.00214524
0.00214524
0.00214735
0.00210949
0.00210944
0.00210944
0.00211155
0.00207369
0.00207365
0.00207365
0.00207576
0.00203789
0.00203785
0.00203785
0.00203996
0.00200209
0.00200205
0.00200205
0.00200416
0.00196629
0.00196625
0.00196625
0.00196836
0.00193049
0.00193045
0.00193045
0.00193256
0.00189469
0.00189465
0.00189465
0.00189676
0.00185889
0.00185885
0.00185885
0.00186096
0.00182309
0.00182305
0.00182305
0.00182516
0.0017873
0.00178725
0.00178725
0.00178936
0.0017515
0.00175146
0.00175146
0.00175357
0.0017157
0.00171566
0.00171566
0.00171777
0.0016799
0.00167986
0.00167986
0.00168197
0.00164411
0.00164406
0.00164406
0.00164617
0.00160831
0.00160826
0.00160826
0.00161037
0.00157251
0.00157247
0.00157247
0.00157458
0.00153671
0.00153667
0.00153667
0.00153878
0.00150091
0.00150087
0.00150087
0.00150298
0.00146512
0.00146507
0.00146507
0.00146718
0.00142932
0.00142928
0.00142928
0.00143139
0.00139352
0.00139348
0.00139348
0.00139559
0.00135773
0.00135768
0.00135768
0.00135979
0.00132193
0.00132188
0.00132188
0.00132399
0.00128613
0.00128609
0.00128609
0.00128819
0.00125033
0.00125029
0.00125029
0.0012524
0.00121453
0.00121448
0.00121448
0.00121659
0.00117873
0.00117868
0.00117868
0.00118079
0.00114292
0.00114288
0.00114288
0.00114499
0.00110712
0.00110708
0.00110708
0.00110919
0.00107132
0.00107128
0.00107128
0.00107339
0.00103552
0.00103548
0.00103548
0.00103759
0.000999726
0.000999684
0.000999684
0.00100179
0.000963928
0.000963886
0.000963886
0.000965995
0.000928131
0.000928089
0.000928088
0.000930197
0.000892334
0.000892292
0.000892292
0.0008944
0.000856536
0.000856494
0.000856494
0.000858603
0.000820738
0.000820696
0.000820696
0.000822805
0.00078494
0.000784898
0.000784898
0.000787007
0.000749142
0.0007491
0.0007491
0.000751209
0.000713344
0.000713302
0.000713302
0.000715411
0.000677547
0.000677505
0.000677505
0.000679613
0.00064175
0.000641708
0.000641707
0.000643816
0.000605953
0.000605911
0.000605911
0.00060802
0.000570157
0.000570115
0.000570115
0.000572223
0.000534359
0.000534317
0.000534317
0.000536426
0.000498561
0.000498519
0.000498519
0.000500628
0.000462763
0.000462721
0.000462721
0.000464829
0.000426964
0.000426922
0.000426922
0.000429029
0.000391164
0.000391122
0.000391122
0.000393229
0.000355364
0.000355322
0.000355322
0.000357429
0.000319564
0.000319522
0.000319522
0.000321627
0.000283764
0.000283722
0.000283722
0.000285826
0.000247964
0.000247923
0.000247922
0.000250023
0.000212164
0.000212124
0.000212124
0.00021422
0.000176363
0.000176324
0.000176324
0.000178413
0.000140554
0.000140521
0.00014052
0.000142597
0.000104732
0.000104709
0.000104708
0.000106767
6.89243e-05
6.88858e-05
6.88845e-05
7.09174e-05
3.40053e-05
3.35893e-05
3.35857e-05
3.53059e-05
4.52882e-06
3.74257e-06
3.74304e-06
3.79269e-06
0.00352945
0.00352802
0.00352803
0.00352945
0.00352805
0.00352808
0.00353213
0.00353213
0.00353215
0.00353214
0.00352806
0.00352798
0.00352949
0.00352806
0.003528
0.00352943
0.00352417
0.00349303
0.00352262
0.00352265
0.00349464
0.00349455
0.00352419
0.00349302
0.00352264
0.0035226
0.0034946
0.00349471
0.0035226
0.00349464
0.00349467
0.00352418
0.00349308
0.00352263
0.00349466
0.00349465
0.00349306
0.00348868
0.0034563
0.00348563
0.0034857
0.0034585
0.00345845
0.00348868
0.00345633
0.00348565
0.00348557
0.00345851
0.00345856
0.00348558
0.00345855
0.00345852
0.0034887
0.00345631
0.00348561
0.00345846
0.00345847
0.00345631
0.00345099
0.00341266
0.0034487
0.00344878
0.00341562
0.00341559
0.00345101
0.00341266
0.00344873
0.00344866
0.00341563
0.00341566
0.00344866
0.00341566
0.00341564
0.00345098
0.00341268
0.00344871
0.00341562
0.0034156
0.00341267
0.0034065
0.00336479
0.00340392
0.00340394
0.00336782
0.00336783
0.0034065
0.00336478
0.00340392
0.00340391
0.00336782
0.00336782
0.00340391
0.0033678
0.00336783
0.00340651
0.00336478
0.00340396
0.00336784
0.00336781
0.00336478
0.0033585
0.00331668
0.00335579
0.00335579
0.00331977
0.00331978
0.00335849
0.0033167
0.00335579
0.00335579
0.00331979
0.00331977
0.00335579
0.00331978
0.00331976
0.0033585
0.00331669
0.00335582
0.00331977
0.00331977
0.00331669
0.00331043
0.00326874
0.00330776
0.00330776
0.00327178
0.00327177
0.00331044
0.00326876
0.00330776
0.00330778
0.00327178
0.00327177
0.00330776
0.00327177
0.00327175
0.00331044
0.00326873
0.00330774
0.00327178
0.00327177
0.00326875
0.00326256
0.00322158
0.00325984
0.00325984
0.00322448
0.00322447
0.00326257
0.00322157
0.00325984
0.00325984
0.00322446
0.00322446
0.00325984
0.00322446
0.00322447
0.00326256
0.00322157
0.00325984
0.00322446
0.00322446
0.00322156
0.00321554
0.00317536
0.0032128
0.0032128
0.00317815
0.00317815
0.00321554
0.00317536
0.00321281
0.00321281
0.00317816
0.00317814
0.00321281
0.00317815
0.00317815
0.00321554
0.00317536
0.00321281
0.00317813
0.00317814
0.00317536
0.00316945
0.00313015
0.00316673
0.00316674
0.00313283
0.00313282
0.00316945
0.00313015
0.00316674
0.00316671
0.00313282
0.00313281
0.00316672
0.00313284
0.00313281
0.00316945
0.00313014
0.00316671
0.00313282
0.00313282
0.00313016
0.00312438
0.00308585
0.00312165
0.00312164
0.00308846
0.00308845
0.00312438
0.00308587
0.00312164
0.00312165
0.00308844
0.00308844
0.00312164
0.00308844
0.00308846
0.00312438
0.00308586
0.00312165
0.00308844
0.00308845
0.00308587
0.0030802
0.00304231
0.00307748
0.00307748
0.00304484
0.00304484
0.00308021
0.0030423
0.0030775
0.00307749
0.00304485
0.00304484
0.00307747
0.00304483
0.00304484
0.00308021
0.0030423
0.00307748
0.00304484
0.00304484
0.0030423
0.00303676
0.00299931
0.00303405
0.00303406
0.00300183
0.0030018
0.00303673
0.00299934
0.00303406
0.00303405
0.00300183
0.00300182
0.00303404
0.00300184
0.00300181
0.00303675
0.0029993
0.00303404
0.00300181
0.00300181
0.00299932
0.00299383
0.00295672
0.00299113
0.00299115
0.00295922
0.0029592
0.00299382
0.00295679
0.00299114
0.00299115
0.00295924
0.00295922
0.00299114
0.00295919
0.00295921
0.00299381
0.00295673
0.00299113
0.00295922
0.00295921
0.00295675
0.00295127
0.00291443
0.00294861
0.00294857
0.00291693
0.00291692
0.00295131
0.0029144
0.0029486
0.00294861
0.00291697
0.00291693
0.00294858
0.00291686
0.0029169
0.00295128
0.0029145
0.0029486
0.00291692
0.00291691
0.00291447
0.00290905
0.00287246
0.0029064
0.00290638
0.00287491
0.00287493
0.00290902
0.00287251
0.00290641
0.0029064
0.00287493
0.00287493
0.00290637
0.00287492
0.00287492
0.00290908
0.00287247
0.00290639
0.00287493
0.00287492
0.00287249
0.00286707
0.00283083
0.00286446
0.0028645
0.00283327
0.00283328
0.00286714
0.00283087
0.00286446
0.00286447
0.00283317
0.00283329
0.0028645
0.00283328
0.00283328
0.00286713
0.00283085
0.00286449
0.00283327
0.00283327
0.00283083
0.00282553
0.00278963
0.00282292
0.00282295
0.00279202
0.00279202
0.00282555
0.0027896
0.00282285
0.00282293
0.00279205
0.00279198
0.00282294
0.002792
0.00279201
0.00282552
0.00278958
0.00282293
0.002792
0.00279199
0.00278955
0.00278434
0.00274871
0.00278175
0.00278174
0.00275113
0.00275106
0.00278431
0.00274861
0.00278178
0.00278172
0.00275116
0.00275115
0.00278177
0.00275115
0.00275114
0.00278432
0.00274871
0.00278175
0.00275115
0.00275114
0.00274873
0.0027435
0.00270825
0.00274098
0.0027409
0.00271069
0.00271069
0.00274342
0.00270829
0.002741
0.002741
0.0027107
0.0027107
0.00274102
0.00271071
0.00271068
0.0027435
0.00270823
0.00274101
0.0027107
0.00271069
0.00270828
0.00270309
0.00266829
0.00270064
0.00270067
0.00267073
0.00267073
0.00270312
0.00266829
0.00270064
0.00270064
0.0026707
0.00267069
0.00270063
0.00267068
0.0026707
0.00270307
0.00266826
0.00270063
0.00267069
0.00267069
0.00266829
0.00266321
0.002629
0.00266083
0.00266084
0.00263141
0.00263141
0.00266321
0.002629
0.00266081
0.00266081
0.00263139
0.00263138
0.0026608
0.00263138
0.00263131
0.00266319
0.00262899
0.0026608
0.00263137
0.00263134
0.00262886
0.00262402
0.00259067
0.00262169
0.00262168
0.00259294
0.00259295
0.00262401
0.00259067
0.00262166
0.00262166
0.00259293
0.00259295
0.00262157
0.00259294
0.00259292
0.00262399
0.00259069
0.00262159
0.00259294
0.00259289
0.00259069
0.00258585
0.0025541
0.00258354
0.00258357
0.00255612
0.00255616
0.00258587
0.00255414
0.00258356
0.00258358
0.00255616
0.00255618
0.0025836
0.0025562
0.00255627
0.00258589
0.00255414
0.00258357
0.00255619
0.00255626
0.00255423
0.00254953
0.00251884
0.0025472
0.00254722
0.00252072
0.0025207
0.00254955
0.00251881
0.00254723
0.00254724
0.00252071
0.00252069
0.00254731
0.0025207
0.00252071
0.00254955
0.00251881
0.00254731
0.00252071
0.00252072
0.00251882
0.00251428
0.0024832
0.0025119
0.00251187
0.0024851
0.00248509
0.00251425
0.00248319
0.00251188
0.00251187
0.00248509
0.00248509
0.00251187
0.00248508
0.00248508
0.00251426
0.0024832
0.00251188
0.00248509
0.00248508
0.00248319
0.00247849
0.00244626
0.00247602
0.00247601
0.00244826
0.00244826
0.00247849
0.00244627
0.00247601
0.00247601
0.00244826
0.00244826
0.002476
0.00244826
0.00244826
0.00247849
0.00244626
0.002476
0.00244826
0.00244826
0.00244626
0.00244137
0.00240834
0.00243887
0.00243887
0.00241046
0.00241046
0.00244137
0.00240834
0.00243887
0.00243887
0.00241047
0.00241047
0.00243887
0.00241046
0.00241047
0.00244137
0.00240834
0.00243887
0.00241046
0.00241047
0.00240834
0.00240336
0.00237028
0.00240096
0.00240096
0.0023725
0.0023725
0.00240336
0.00237028
0.00240096
0.00240096
0.0023725
0.0023725
0.00240096
0.0023725
0.0023725
0.00240336
0.00237028
0.00240096
0.0023725
0.0023725
0.00237028
0.00236531
0.0023327
0.00236305
0.00236305
0.00233494
0.00233494
0.00236531
0.0023327
0.00236306
0.00236306
0.00233494
0.00233494
0.00236306
0.00233494
0.00233494
0.00236531
0.0023327
0.00236305
0.00233494
0.00233494
0.0023327
0.00232781
0.00229586
0.00232565
0.00232565
0.00229806
0.00229806
0.00232781
0.00229586
0.00232565
0.00232565
0.00229806
0.00229806
0.00232565
0.00229805
0.00229805
0.00232781
0.00229586
0.00232565
0.00229806
0.00229805
0.00229586
0.00229105
0.00225961
0.00228893
0.00228893
0.00226175
0.00226175
0.00229105
0.00225961
0.00228893
0.00228893
0.00226175
0.00226175
0.00228893
0.00226175
0.00226175
0.00229105
0.00225961
0.00228893
0.00226175
0.00226175
0.00225961
0.00225485
0.0022237
0.00225275
0.00225275
0.00222581
0.00222581
0.00225485
0.0022237
0.00225275
0.00225275
0.00222581
0.00222581
0.00225275
0.00222581
0.00222581
0.00225485
0.0022237
0.00225275
0.00222581
0.00222581
0.0022237
0.00221896
0.00218788
0.00221685
0.00221685
0.00218999
0.00218999
0.00221896
0.00218788
0.00221685
0.00221685
0.00218999
0.00218999
0.00221685
0.00218999
0.00218999
0.00221896
0.00218788
0.00221685
0.00218999
0.00218999
0.00218788
0.00218315
0.00215209
0.00218104
0.00218104
0.00215419
0.00215419
0.00218315
0.00215209
0.00218104
0.00218104
0.00215419
0.00215419
0.00218104
0.00215419
0.00215419
0.00218315
0.00215209
0.00218104
0.00215419
0.00215419
0.00215209
0.00214735
0.00211629
0.00214524
0.00214524
0.00211839
0.00211839
0.00214735
0.00211629
0.00214524
0.00214524
0.00211839
0.00211839
0.00214524
0.00211839
0.00211839
0.00214735
0.00211629
0.00214524
0.00211839
0.00211839
0.00211629
0.00211155
0.00208049
0.00210944
0.00210944
0.0020826
0.0020826
0.00211155
0.00208049
0.00210944
0.00210944
0.0020826
0.0020826
0.00210944
0.0020826
0.0020826
0.00211155
0.00208049
0.00210944
0.0020826
0.0020826
0.00208049
0.00207576
0.00204469
0.00207365
0.00207365
0.0020468
0.0020468
0.00207576
0.00204469
0.00207365
0.00207365
0.0020468
0.0020468
0.00207365
0.0020468
0.0020468
0.00207576
0.00204469
0.00207365
0.0020468
0.0020468
0.00204469
0.00203996
0.00200889
0.00203785
0.00203785
0.002011
0.002011
0.00203996
0.00200889
0.00203785
0.00203785
0.002011
0.002011
0.00203785
0.002011
0.002011
0.00203996
0.00200889
0.00203785
0.002011
0.002011
0.00200889
0.00200416
0.00197309
0.00200205
0.00200205
0.0019752
0.0019752
0.00200416
0.00197309
0.00200205
0.00200205
0.0019752
0.0019752
0.00200205
0.0019752
0.0019752
0.00200416
0.00197309
0.00200205
0.0019752
0.0019752
0.00197309
0.00196836
0.00193729
0.00196625
0.00196625
0.0019394
0.0019394
0.00196836
0.00193729
0.00196625
0.00196625
0.0019394
0.0019394
0.00196625
0.0019394
0.0019394
0.00196836
0.00193729
0.00196625
0.0019394
0.0019394
0.00193729
0.00193256
0.00190149
0.00193045
0.00193045
0.0019036
0.0019036
0.00193256
0.00190149
0.00193045
0.00193045
0.0019036
0.0019036
0.00193045
0.0019036
0.0019036
0.00193256
0.00190149
0.00193045
0.0019036
0.0019036
0.00190149
0.00189676
0.00186569
0.00189465
0.00189465
0.0018678
0.0018678
0.00189676
0.00186569
0.00189465
0.00189465
0.0018678
0.0018678
0.00189465
0.0018678
0.0018678
0.00189676
0.00186569
0.00189465
0.0018678
0.0018678
0.00186569
0.00186096
0.00182989
0.00185885
0.00185885
0.001832
0.001832
0.00186096
0.00182989
0.00185885
0.00185885
0.001832
0.001832
0.00185885
0.001832
0.001832
0.00186096
0.0018299
0.00185885
0.001832
0.001832
0.00182989
0.00182516
0.0017941
0.00182305
0.00182305
0.0017962
0.0017962
0.00182516
0.0017941
0.00182305
0.00182305
0.0017962
0.0017962
0.00182305
0.0017962
0.0017962
0.00182516
0.0017941
0.00182305
0.0017962
0.0017962
0.0017941
0.00178936
0.0017583
0.00178725
0.00178725
0.00176041
0.00176041
0.00178936
0.0017583
0.00178725
0.00178725
0.00176041
0.00176041
0.00178725
0.00176041
0.00176041
0.00178936
0.0017583
0.00178725
0.00176041
0.00176041
0.0017583
0.00175357
0.0017225
0.00175146
0.00175146
0.00172461
0.00172461
0.00175357
0.0017225
0.00175146
0.00175146
0.00172461
0.00172461
0.00175146
0.00172461
0.00172461
0.00175357
0.0017225
0.00175146
0.00172461
0.00172461
0.0017225
0.00171777
0.0016867
0.00171566
0.00171566
0.00168881
0.00168881
0.00171777
0.0016867
0.00171566
0.00171566
0.00168881
0.00168881
0.00171566
0.00168881
0.00168881
0.00171777
0.0016867
0.00171566
0.00168881
0.00168881
0.0016867
0.00168197
0.00165091
0.00167986
0.00167986
0.00165301
0.00165301
0.00168197
0.00165091
0.00167986
0.00167986
0.00165301
0.00165301
0.00167986
0.00165301
0.00165301
0.00168197
0.00165091
0.00167986
0.00165301
0.00165301
0.00165091
0.00164617
0.00161511
0.00164406
0.00164406
0.00161721
0.00161721
0.00164617
0.00161511
0.00164406
0.00164406
0.00161721
0.00161721
0.00164406
0.00161721
0.00161721
0.00164617
0.00161511
0.00164406
0.00161721
0.00161721
0.00161511
0.00161037
0.00157931
0.00160826
0.00160826
0.00158142
0.00158142
0.00161037
0.00157931
0.00160826
0.00160826
0.00158142
0.00158142
0.00160826
0.00158142
0.00158142
0.00161037
0.00157931
0.00160827
0.00158142
0.00158142
0.00157931
0.00157458
0.00154351
0.00157247
0.00157247
0.00154562
0.00154562
0.00157458
0.00154351
0.00157247
0.00157247
0.00154562
0.00154562
0.00157247
0.00154562
0.00154562
0.00157458
0.00154351
0.00157247
0.00154562
0.00154562
0.00154351
0.00153878
0.00150771
0.00153667
0.00153667
0.00150982
0.00150982
0.00153878
0.00150771
0.00153667
0.00153667
0.00150982
0.00150982
0.00153667
0.00150982
0.00150982
0.00153878
0.00150771
0.00153667
0.00150982
0.00150982
0.00150771
0.00150298
0.00147192
0.00150087
0.00150087
0.00147402
0.00147402
0.00150298
0.00147192
0.00150087
0.00150087
0.00147402
0.00147402
0.00150087
0.00147402
0.00147402
0.00150298
0.00147192
0.00150087
0.00147402
0.00147402
0.00147192
0.00146718
0.00143612
0.00146507
0.00146507
0.00143823
0.00143823
0.00146718
0.00143612
0.00146507
0.00146507
0.00143823
0.00143823
0.00146507
0.00143823
0.00143823
0.00146718
0.00143612
0.00146507
0.00143823
0.00143823
0.00143612
0.00143139
0.00140032
0.00142928
0.00142928
0.00140243
0.00140243
0.00143139
0.00140032
0.00142928
0.00142928
0.00140243
0.00140243
0.00142928
0.00140243
0.00140243
0.00143139
0.00140032
0.00142928
0.00140243
0.00140243
0.00140032
0.00139559
0.00136453
0.00139348
0.00139348
0.00136663
0.00136663
0.00139559
0.00136453
0.00139348
0.00139348
0.00136663
0.00136663
0.00139348
0.00136663
0.00136663
0.00139559
0.00136453
0.00139348
0.00136663
0.00136663
0.00136453
0.00135979
0.00132873
0.00135768
0.00135768
0.00133083
0.00133083
0.00135979
0.00132873
0.00135768
0.00135768
0.00133083
0.00133083
0.00135768
0.00133083
0.00133083
0.00135979
0.00132873
0.00135768
0.00133083
0.00133083
0.00132873
0.00132399
0.00129293
0.00132188
0.00132188
0.00129503
0.00129503
0.00132399
0.00129293
0.00132188
0.00132188
0.00129503
0.00129503
0.00132188
0.00129504
0.00129504
0.00132399
0.00129293
0.00132188
0.00129504
0.00129504
0.00129293
0.00128819
0.00125713
0.00128609
0.00128609
0.00125924
0.00125924
0.00128819
0.00125713
0.00128609
0.00128609
0.00125923
0.00125923
0.00128609
0.00125924
0.00125924
0.0012882
0.00125713
0.00128609
0.00125924
0.00125924
0.00125713
0.0012524
0.00122133
0.00125029
0.00125029
0.00122343
0.00122343
0.0012524
0.00122133
0.00125029
0.00125029
0.00122343
0.00122343
0.00125029
0.00122343
0.00122343
0.0012524
0.00122133
0.00125029
0.00122343
0.00122343
0.00122133
0.00121659
0.00118553
0.00121448
0.00121448
0.00118763
0.00118763
0.00121659
0.00118553
0.00121448
0.00121448
0.00118763
0.00118763
0.00121448
0.00118763
0.00118763
0.00121659
0.00118553
0.00121448
0.00118763
0.00118763
0.00118553
0.00118079
0.00114973
0.00117868
0.00117868
0.00115183
0.00115183
0.00118079
0.00114973
0.00117868
0.00117868
0.00115183
0.00115183
0.00117868
0.00115183
0.00115183
0.00118079
0.00114973
0.00117868
0.00115183
0.00115183
0.00114972
0.00114499
0.00111392
0.00114288
0.00114288
0.00111603
0.00111603
0.00114499
0.00111392
0.00114288
0.00114288
0.00111603
0.00111603
0.00114288
0.00111603
0.00111603
0.00114499
0.00111392
0.00114288
0.00111603
0.00111603
0.00111392
0.00110919
0.00107812
0.00110708
0.00110708
0.00108023
0.00108023
0.00110919
0.00107813
0.00110708
0.00110708
0.00108023
0.00108023
0.00110708
0.00108023
0.00108023
0.00110919
0.00107813
0.00110708
0.00108023
0.00108023
0.00107812
0.00107339
0.00104233
0.00107128
0.00107128
0.00104443
0.00104443
0.00107339
0.00104233
0.00107128
0.00107128
0.00104443
0.00104443
0.00107128
0.00104443
0.00104443
0.00107339
0.00104233
0.00107128
0.00104443
0.00104443
0.00104233
0.00103759
0.00100653
0.00103548
0.00103548
0.00100863
0.00100863
0.00103759
0.00100653
0.00103548
0.00103548
0.00100863
0.00100863
0.00103548
0.00100863
0.00100863
0.00103759
0.00100653
0.00103548
0.00100863
0.00100863
0.00100653
0.00100179
0.000970729
0.000999684
0.000999684
0.000972835
0.000972835
0.00100179
0.000970729
0.000999683
0.000999683
0.000972835
0.000972835
0.000999684
0.000972835
0.000972835
0.00100179
0.000970729
0.000999683
0.000972835
0.000972835
0.000970728
0.000965995
0.000934932
0.000963886
0.000963886
0.000937038
0.000937038
0.000965996
0.000934932
0.000963886
0.000963886
0.000937037
0.000937037
0.000963886
0.000937038
0.000937038
0.000965996
0.000934931
0.000963886
0.000937037
0.000937038
0.000934931
0.000930199
0.000899135
0.000928089
0.000928089
0.000901241
0.000901241
0.000930199
0.000899135
0.000928089
0.000928088
0.00090124
0.00090124
0.000928089
0.00090124
0.000901241
0.000930198
0.000899134
0.000928089
0.00090124
0.000901241
0.000899134
0.000894402
0.000863337
0.000892292
0.000892292
0.000865443
0.000865443
0.000894401
0.000863337
0.000892292
0.000892292
0.000865443
0.000865443
0.000892292
0.000865443
0.000865444
0.000894401
0.000863338
0.000892292
0.000865444
0.000865444
0.000863337
0.000858604
0.000827539
0.000856494
0.000856494
0.000829645
0.000829645
0.000858604
0.000827539
0.000856494
0.000856494
0.000829645
0.000829645
0.000856494
0.000829645
0.000829646
0.000858604
0.000827539
0.000856494
0.000829645
0.000829646
0.000827538
0.000822806
0.000791741
0.000820696
0.000820696
0.000793847
0.000793847
0.000822806
0.000791741
0.000820696
0.000820696
0.000793846
0.000793847
0.000820696
0.000793847
0.000793847
0.000822806
0.000791741
0.000820696
0.000793847
0.000793847
0.00079174
0.000787008
0.000755943
0.000784898
0.000784898
0.000758049
0.000758049
0.000787007
0.000755943
0.000784898
0.000784898
0.000758049
0.000758049
0.000784898
0.000758049
0.000758049
0.000787008
0.000755943
0.000784898
0.000758049
0.000758049
0.000755942
0.000751209
0.000720145
0.0007491
0.0007491
0.000722251
0.000722251
0.000751209
0.000720145
0.0007491
0.0007491
0.000722251
0.000722251
0.0007491
0.000722251
0.000722252
0.00075121
0.000720145
0.0007491
0.000722251
0.000722251
0.000720145
0.000715412
0.000684348
0.000713302
0.000713302
0.000686454
0.000686454
0.000715412
0.000684348
0.000713302
0.000713302
0.000686453
0.000686454
0.000713302
0.000686454
0.000686454
0.000715412
0.000684348
0.000713302
0.000686454
0.000686454
0.000684347
0.000679614
0.000648551
0.000677505
0.000677505
0.000650657
0.000650656
0.000679615
0.000648551
0.000677504
0.000677505
0.000650656
0.000650656
0.000677505
0.000650656
0.000650657
0.000679614
0.000648551
0.000677505
0.000650657
0.000650657
0.00064855
0.000643817
0.000612754
0.000641708
0.000641708
0.00061486
0.00061486
0.000643817
0.000612754
0.000641708
0.000641708
0.00061486
0.00061486
0.000641708
0.00061486
0.00061486
0.000643817
0.000612754
0.000641708
0.00061486
0.00061486
0.000612753
0.000608021
0.000576957
0.000605911
0.000605911
0.000579063
0.000579063
0.000608021
0.000576958
0.000605911
0.000605911
0.000579063
0.000579063
0.000605911
0.000579063
0.000579064
0.000608021
0.000576958
0.000605911
0.000579063
0.000579064
0.000576957
0.000572224
0.00054116
0.000570115
0.000570114
0.000543266
0.000543266
0.000572224
0.00054116
0.000570114
0.000570115
0.000543266
0.000543266
0.000570115
0.000543266
0.000543266
0.000572224
0.00054116
0.000570115
0.000543266
0.000543266
0.00054116
0.000536427
0.000505362
0.000534317
0.000534317
0.000507468
0.000507468
0.000536427
0.000505362
0.000534317
0.000534317
0.000507468
0.000507468
0.000534317
0.000507468
0.000507468
0.000536427
0.000505362
0.000534317
0.000507468
0.000507468
0.000505362
0.000500629
0.000469564
0.000498519
0.000498519
0.00047167
0.000471669
0.000500629
0.000469564
0.000498519
0.000498519
0.000471669
0.00047167
0.000498519
0.000471669
0.00047167
0.000500629
0.000469564
0.000498519
0.00047167
0.00047167
0.000469563
0.00046483
0.000433765
0.000462721
0.000462721
0.000435871
0.00043587
0.00046483
0.000433765
0.000462721
0.000462721
0.00043587
0.00043587
0.000462721
0.00043587
0.000435871
0.00046483
0.000433765
0.000462721
0.00043587
0.00043587
0.000433764
0.00042903
0.000397965
0.000426921
0.000426921
0.000400071
0.00040007
0.00042903
0.000397965
0.000426921
0.000426922
0.00040007
0.00040007
0.000426922
0.00040007
0.000400071
0.00042903
0.000397965
0.000426922
0.00040007
0.000400071
0.000397965
0.00039323
0.000362165
0.000391122
0.000391122
0.00036427
0.00036427
0.00039323
0.000362165
0.000391122
0.000391122
0.00036427
0.00036427
0.000391122
0.00036427
0.000364271
0.00039323
0.000362165
0.000391122
0.00036427
0.00036427
0.000362165
0.00035743
0.000326365
0.000355322
0.000355322
0.00032847
0.000328469
0.000357429
0.000326365
0.000355322
0.000355322
0.000328469
0.00032847
0.000355322
0.000328469
0.00032847
0.000357429
0.000326365
0.000355322
0.00032847
0.00032847
0.000326364
0.000321628
0.000290566
0.000319522
0.000319522
0.000292669
0.000292669
0.000321628
0.000290566
0.000319522
0.000319522
0.000292669
0.000292669
0.000319522
0.000292669
0.000292669
0.000321628
0.000290565
0.000319522
0.000292669
0.000292669
0.000290565
0.000285827
0.000254767
0.000283722
0.000283722
0.000256869
0.000256869
0.000285827
0.000254767
0.000283722
0.000283722
0.000256869
0.000256869
0.000283722
0.000256869
0.000256869
0.000285827
0.000254767
0.000283722
0.000256869
0.000256869
0.000254766
0.000250024
0.000218969
0.000247923
0.000247922
0.000221069
0.000221069
0.000250024
0.000218969
0.000247922
0.000247922
0.000221069
0.000221069
0.000247923
0.000221069
0.000221069
0.000250024
0.000218969
0.000247922
0.000221069
0.000221069
0.000218968
0.000214221
0.000183171
0.000212123
0.000212123
0.000185268
0.000185268
0.000214221
0.000183171
0.000212123
0.000212124
0.000185268
0.000185268
0.000212124
0.000185268
0.000185268
0.000214221
0.000183171
0.000212124
0.000185268
0.000185268
0.000183171
0.000178414
0.000147371
0.000176324
0.000176324
0.000149464
0.000149463
0.000178413
0.000147372
0.000176324
0.000176324
0.000149463
0.000149463
0.000176324
0.000149463
0.000149464
0.000178414
0.000147371
0.000176324
0.000149463
0.000149464
0.000147371
0.000142598
0.000111565
0.00014052
0.00014052
0.000113651
0.000113651
0.000142598
0.000111565
0.00014052
0.00014052
0.000113651
0.000113651
0.000140521
0.000113651
0.000113651
0.000142598
0.000111565
0.000140521
0.000113651
0.000113651
0.000111565
0.000106767
7.57469e-05
0.000104709
0.000104709
7.78247e-05
7.78246e-05
0.000106767
7.57477e-05
0.000104708
0.000104708
7.7824e-05
7.78237e-05
0.000104709
7.78242e-05
7.78238e-05
0.000106767
7.5746e-05
0.000104709
7.78235e-05
7.7824e-05
7.57459e-05
7.0919e-05
4.00726e-05
6.88862e-05
6.88861e-05
4.21876e-05
4.21884e-05
7.0919e-05
4.00736e-05
6.88852e-05
6.88845e-05
4.21865e-05
4.21847e-05
6.88849e-05
4.21874e-05
4.21845e-05
7.09182e-05
4.00699e-05
6.8885e-05
4.21843e-05
4.2184e-05
4.00694e-05
3.53102e-05
7.122e-06
3.35898e-05
3.35908e-05
9.80431e-06
9.80363e-06
3.53105e-05
7.12122e-06
3.35894e-05
3.35866e-05
9.80382e-06
9.80004e-06
3.35855e-05
9.80187e-06
9.79792e-06
3.53069e-05
7.11857e-06
3.35859e-05
9.80064e-06
9.80032e-06
7.11715e-06
3.79602e-06
3.74699e-06
3.74437e-06
3.79622e-06
3.7412e-06
3.74074e-06
4.52805e-06
4.5268e-06
4.52632e-06
3.74129e-06
3.79419e-06
3.73992e-06
0.00353615
0.00353998
0.00353829
0.00353831
0.00356116
0.00354118
0.00356805
0.00353977
0.00356113
0.00354125
0.00353978
0.0035682
0.00355008
0.0035713
0.00357123
0.00350656
0.00352113
0.0035248
0.00349888
0.00349799
0.00350233
0.00350649
0.00352112
0.00352474
0.00349879
0.00352312
0.00352311
0.00352313
0.00349531
0.00349531
0.00349533
0.00349534
0.00350623
0.00351927
0.00352373
0.00351365
0.00352599
0.00350327
0.00351401
0.00349812
0.00350241
0.0035062
0.00352374
0.00351924
0.00351368
0.00352596
0.00351398
0.00350323
0.00352504
0.00352477
0.00351061
0.00350329
0.00350316
0.00347963
0.00349344
0.00349291
0.00347779
0.00349053
0.00347692
0.0034795
0.00349328
0.00349299
0.00347782
0.00348652
0.00348651
0.00348654
0.00345979
0.0034598
0.00345979
0.00345981
0.00347722
0.00349202
0.0034856
0.0034769
0.00349049
0.00347808
0.0034767
0.00349063
0.00347686
0.00347723
0.00348548
0.00349205
0.0034768
0.00349047
0.00347667
0.00347802
0.00349368
0.00349369
0.00347566
0.00347867
0.0034786
0.00343767
0.00345249
0.00345325
0.00343653
0.00345126
0.00343561
0.00343774
0.00345251
0.00345319
0.00343655
0.00344992
0.0034499
0.00344992
0.00341672
0.00341673
0.00341675
0.00341674
0.00343623
0.00345219
0.00344853
0.00343814
0.00345134
0.00343697
0.00343802
0.0034513
0.00343553
0.00343623
0.00344851
0.00345223
0.00343804
0.00345133
0.00343796
0.0034369
0.00345278
0.00345273
0.00343535
0.00343673
0.00343676
0.00339096
0.0034076
0.00340897
0.00338962
0.00340693
0.00338909
0.00339099
0.00340761
0.00340899
0.00338961
0.00340493
0.00340494
0.00340495
0.00336887
0.00336887
0.00336887
0.00336888
0.00338975
0.00340762
0.00340375
0.00339194
0.00340712
0.00339019
0.00339186
0.00340693
0.00338905
0.00338976
0.00340369
0.00340762
0.00339193
0.0034071
0.00339185
0.00339012
0.00340776
0.00340773
0.00338887
0.00338965
0.00338969
0.00334232
0.00335922
0.00336039
0.00334106
0.00335882
0.00334073
0.00334219
0.00335923
0.00336046
0.00334106
0.00335682
0.00335683
0.00335684
0.00332074
0.00332075
0.00332074
0.00332075
0.0033414
0.00335932
0.00335574
0.00334375
0.00335902
0.00334161
0.00334371
0.0033588
0.00334073
0.00334143
0.00335574
0.00335927
0.00334378
0.00335903
0.00334379
0.00334165
0.00335927
0.00335927
0.00334073
0.00334113
0.00334114
0.00329349
0.00331081
0.00331179
0.00329276
0.00331057
0.00329249
0.00329355
0.0033108
0.00331173
0.00329278
0.0033087
0.00330871
0.00330871
0.00327263
0.00327263
0.00327263
0.00327263
0.00329323
0.00331091
0.00330775
0.00329577
0.00331079
0.00329333
0.00329574
0.00331054
0.00329252
0.00329321
0.0033078