/*--------------------------------*- C++ -*----------------------------------*\
| =========                 |                                                 |
| \\      /  F ield         | OpenFOAM: The Open Source CFD Toolbox           |
|  \\    /   O peration     | Version:  v1906                                 |
|   \\  /    A nd           | Web:      www.OpenFOAM.com                      |
|    \\/     M anipulation  |                                                 |
\*---------------------------------------------------------------------------*/
FoamFile
{
    version     2.0;
    format      ascii;
    class       volScalarField;
    location    "200";
    object      epsilon;
}
// * * * * * * * * * * * * * * * * * * * * * * * * * * * * * * * * * * * * * //

dimensions      [0 2 -3 0 0 0 0];


internalField   nonuniform List<scalar> 
171728
(
1.09622e-08
4.83843e-09
7.80809e-09
5.02477e-09
1.08747e-08
4.47252e-09
7.68544e-09
4.56043e-09
1.1036e-08
4.16527e-09
6.35217e-09
4.15327e-09
1.1209e-08
3.90737e-09
4.92173e-09
3.7988e-09
1.13976e-08
3.69556e-09
4.09705e-09
3.48604e-09
1.15991e-08
3.53392e-09
3.64911e-09
3.23467e-09
1.18146e-08
3.42035e-09
3.3992e-09
3.02778e-09
1.20411e-08
3.36081e-09
3.32253e-09
2.84785e-09
1.228e-08
3.34663e-09
3.27697e-09
2.70438e-09
1.2539e-08
3.3781e-09
3.29307e-09
2.60512e-09
1.28061e-08
3.45665e-09
3.37232e-09
2.55259e-09
1.30847e-08
3.58814e-09
3.50393e-09
2.54315e-09
1.33736e-08
3.77492e-09
3.69156e-09
2.57943e-09
1.36731e-08
4.0312e-09
3.94955e-09
2.67557e-09
1.39727e-08
4.38264e-09
4.30389e-09
2.86198e-09
1.42784e-08
4.86655e-09
4.7864e-09
3.1625e-09
1.45865e-08
5.5469e-09
5.46282e-09
3.71411e-09
1.48962e-08
6.52362e-09
6.41567e-09
4.59334e-09
1.52203e-08
7.87306e-09
7.80715e-09
6.20948e-09
1.55529e-08
9.86076e-09
9.68785e-09
8.48786e-09
1.59126e-08
1.26874e-08
1.26993e-08
1.41325e-08
1.6312e-08
1.65552e-08
1.63913e-08
1.9943e-08
1.67639e-08
2.20983e-08
2.20486e-08
3.30676e-08
1.72836e-08
2.96103e-08
2.9564e-08
5.33072e-08
1.78971e-08
3.93329e-08
3.93791e-08
8.13813e-08
1.86375e-08
5.19637e-08
5.1997e-08
1.2264e-07
1.95547e-08
6.73807e-08
6.72219e-08
1.74683e-07
2.06969e-08
8.61235e-08
8.56231e-08
2.39174e-07
2.21062e-08
1.08457e-07
1.07222e-07
3.1288e-07
2.38939e-08
1.3407e-07
1.32178e-07
3.91396e-07
2.61553e-08
1.63956e-07
1.6112e-07
4.71163e-07
2.89939e-08
1.96848e-07
1.92632e-07
5.46753e-07
3.25143e-08
2.32592e-07
2.28455e-07
6.17895e-07
3.6802e-08
2.7072e-07
2.66853e-07
6.81327e-07
4.20003e-08
3.10946e-07
3.08961e-07
7.3833e-07
4.83235e-08
3.52686e-07
3.52613e-07
7.8913e-07
5.59451e-08
3.9802e-07
3.98662e-07
8.33965e-07
6.49481e-08
4.44187e-07
4.45815e-07
8.7366e-07
7.56455e-08
4.92356e-07
4.93356e-07
9.03727e-07
8.80537e-08
5.38732e-07
5.39196e-07
9.327e-07
1.03143e-07
5.84926e-07
5.85776e-07
9.64149e-07
1.20591e-07
6.27043e-07
6.2762e-07
9.91825e-07
1.35967e-07
6.50259e-07
6.50528e-07
9.95459e-07
1.48423e-07
6.61656e-07
6.61895e-07
9.84266e-07
1.63367e-07
6.78664e-07
6.78889e-07
9.78337e-07
1.89696e-07
7.1562e-07
7.15808e-07
9.95509e-07
2.29689e-07
7.65984e-07
7.66145e-07
1.0329e-06
2.78027e-07
8.17187e-07
8.17319e-07
1.07919e-06
3.24808e-07
8.61259e-07
8.61384e-07
1.12652e-06
3.56679e-07
8.87914e-07
8.88032e-07
1.15787e-06
3.72922e-07
9.00532e-07
9.00642e-07
1.17407e-06
3.79719e-07
9.05648e-07
9.05753e-07
1.1811e-06
3.82209e-07
9.07567e-07
9.07668e-07
1.18398e-06
3.83016e-07
9.08222e-07
9.08324e-07
1.18505e-06
3.83153e-07
9.08294e-07
9.08397e-07
1.18529e-06
3.83161e-07
9.08246e-07
9.0835e-07
1.18501e-06
3.83202e-07
9.0834e-07
9.08442e-07
1.18531e-06
3.83188e-07
9.08295e-07
9.08397e-07
1.18523e-06
3.83183e-07
9.08281e-07
9.08386e-07
1.18514e-06
3.83187e-07
9.08307e-07
9.08409e-07
1.18527e-06
3.83183e-07
9.08288e-07
9.08391e-07
1.18513e-06
3.83185e-07
9.08296e-07
9.08402e-07
1.18524e-06
3.83185e-07
9.08298e-07
9.08399e-07
1.1852e-06
3.83185e-07
9.08296e-07
9.08399e-07
1.18517e-06
3.83186e-07
9.08295e-07
9.08397e-07
1.18526e-06
3.83186e-07
9.08298e-07
9.08402e-07
1.1852e-06
3.83186e-07
9.08295e-07
9.08397e-07
1.18516e-06
3.83186e-07
9.08293e-07
9.08395e-07
1.1852e-06
3.83187e-07
9.08298e-07
9.08402e-07
1.18526e-06
3.83185e-07
9.08296e-07
9.08397e-07
1.18522e-06
3.83183e-07
9.08294e-07
9.08395e-07
1.18519e-06
3.83183e-07
9.08295e-07
9.08396e-07
1.18514e-06
3.83182e-07
9.08295e-07
9.08396e-07
1.18525e-06
3.83182e-07
9.0829e-07
9.08391e-07
1.18519e-06
3.83179e-07
9.08296e-07
9.08392e-07
1.18516e-06
3.83179e-07
9.08297e-07
9.08395e-07
1.18527e-06
3.83176e-07
9.08291e-07
9.0839e-07
1.18526e-06
3.83175e-07
9.08289e-07
9.08392e-07
1.18517e-06
3.83175e-07
9.08292e-07
9.0839e-07
1.18521e-06
3.83174e-07
9.08291e-07
9.08386e-07
1.18523e-06
3.83174e-07
9.0829e-07
9.0839e-07
1.18517e-06
3.83173e-07
9.08287e-07
9.0839e-07
1.1851e-06
3.83173e-07
9.08289e-07
9.08389e-07
1.18509e-06
3.83172e-07
9.08291e-07
9.08393e-07
1.18516e-06
3.83172e-07
9.08289e-07
9.0839e-07
1.18523e-06
3.83172e-07
9.08294e-07
9.08394e-07
1.18524e-06
3.83173e-07
9.08298e-07
9.08402e-07
1.18523e-06
3.83174e-07
9.08302e-07
9.08406e-07
1.1852e-06
3.83174e-07
9.08311e-07
9.08412e-07
1.18517e-06
3.83175e-07
9.08326e-07
9.08425e-07
1.18516e-06
3.83177e-07
9.08344e-07
9.08446e-07
1.18517e-06
3.83182e-07
9.08375e-07
9.08477e-07
1.18518e-06
3.83179e-07
9.08416e-07
9.08516e-07
1.18515e-06
3.8267e-07
9.08117e-07
9.0821e-07
1.18482e-06
3.65071e-07
8.52007e-07
8.52014e-07
1.13965e-06
4.82653e-09
4.35304e-09
4.25086e-09
5.12671e-09
3.81253e-09
4.24503e-09
1.12187e-08
1.13033e-08
1.13005e-08
1.12115e-08
4.25182e-09
4.07402e-09
4.7782e-09
4.54814e-09
4.3345e-09
5.05628e-09
4.79828e-09
4.41402e-09
4.96477e-09
4.88569e-09
4.67551e-09
4.57796e-09
5.09859e-09
4.69818e-09
4.49187e-09
4.89743e-09
4.19302e-09
4.62124e-09
5.5491e-09
4.56032e-09
5.21111e-09
4.72707e-09
4.45533e-09
4.89082e-09
7.82466e-09
4.60884e-09
4.62063e-09
4.37201e-09
4.03832e-09
4.57624e-09
4.48281e-09
4.29362e-09
4.22983e-09
4.66594e-09
4.30356e-09
4.10075e-09
4.53224e-09
3.85443e-09
4.28909e-09
5.10215e-09
4.2375e-09
4.79223e-09
4.39379e-09
4.1537e-09
4.51488e-09
6.75116e-09
4.26441e-09
4.21432e-09
3.99438e-09
3.71342e-09
4.21037e-09
4.15372e-09
3.9903e-09
3.94922e-09
4.27183e-09
3.96149e-09
3.78068e-09
4.21514e-09
3.58197e-09
4.01239e-09
4.69711e-09
3.96719e-09
4.41886e-09
4.09869e-09
3.85292e-09
4.18968e-09
5.22771e-09
3.98073e-09
3.85624e-09
3.67047e-09
3.4335e-09
3.925e-09
3.88919e-09
3.74741e-09
3.72648e-09
3.92491e-09
3.65885e-09
3.52057e-09
3.95026e-09
3.35208e-09
3.78213e-09
4.32361e-09
3.74381e-09
4.03539e-09
3.79879e-09
3.55608e-09
3.91752e-09
4.25282e-09
3.74693e-09
3.52948e-09
3.40369e-09
3.19204e-09
3.69384e-09
3.67763e-09
3.55446e-09
3.55005e-09
3.63035e-09
3.40783e-09
3.30204e-09
3.7317e-09
3.17439e-09
3.59932e-09
3.94158e-09
3.56966e-09
3.67535e-09
3.51537e-09
3.30717e-09
3.69554e-09
3.74172e-09
3.56309e-09
3.25784e-09
3.17223e-09
2.98422e-09
3.51545e-09
3.51404e-09
3.41731e-09
3.42498e-09
3.38921e-09
3.19967e-09
3.13967e-09
3.56235e-09
3.0561e-09
3.47062e-09
3.59469e-09
3.44547e-09
3.39204e-09
3.28714e-09
3.11381e-09
3.52544e-09
3.44534e-09
3.42953e-09
3.04355e-09
2.96981e-09
2.81482e-09
3.39214e-09
3.40205e-09
3.33105e-09
3.34709e-09
3.18525e-09
3.02758e-09
3.03417e-09
3.44526e-09
2.99232e-09
3.3917e-09
3.3377e-09
3.37064e-09
3.20663e-09
3.10003e-09
2.95414e-09
3.40335e-09
3.33357e-09
3.34369e-09
2.86e-09
2.80452e-09
2.68402e-09
3.31555e-09
3.33271e-09
3.2895e-09
3.31093e-09
3.01704e-09
2.89358e-09
2.98257e-09
3.38115e-09
2.98171e-09
3.36483e-09
3.17068e-09
3.34553e-09
3.08713e-09
2.94368e-09
2.83367e-09
3.3279e-09
3.28177e-09
3.30165e-09
2.71196e-09
2.67768e-09
2.59257e-09
3.28905e-09
3.31081e-09
3.30058e-09
3.32163e-09
2.88692e-09
2.79594e-09
2.98623e-09
3.36568e-09
3.02211e-09
3.38248e-09
3.06567e-09
3.36637e-09
3.04498e-09
2.82793e-09
2.74764e-09
3.30076e-09
3.28479e-09
3.31131e-09
2.60744e-09
2.59085e-09
2.54254e-09
3.30972e-09
3.33133e-09
3.36001e-09
3.37814e-09
2.79363e-09
2.73582e-09
3.04041e-09
3.39565e-09
3.1125e-09
3.44972e-09
3.04588e-09
3.43761e-09
3.07477e-09
2.74577e-09
2.69619e-09
3.32103e-09
3.35074e-09
3.36963e-09
2.54912e-09
2.5465e-09
2.53075e-09
3.3813e-09
3.39867e-09
3.46844e-09
3.47886e-09
2.73841e-09
2.71355e-09
3.14275e-09
3.47502e-09
3.2513e-09
3.56806e-09
3.09651e-09
3.5541e-09
3.18764e-09
2.69975e-09
2.68294e-09
3.39221e-09
3.46934e-09
3.4794e-09
2.53182e-09
2.54254e-09
2.56134e-09
3.50291e-09
3.51476e-09
3.63148e-09
3.64254e-09
2.72457e-09
2.73435e-09
3.29426e-09
3.6069e-09
3.44253e-09
3.74016e-09
3.22766e-09
3.72674e-09
3.37118e-09
2.69421e-09
2.71378e-09
3.51622e-09
3.64205e-09
3.6447e-09
2.55759e-09
2.58344e-09
2.64697e-09
3.68067e-09
3.69325e-09
3.85888e-09
3.86811e-09
2.75489e-09
2.81101e-09
3.49899e-09
3.79351e-09
3.69675e-09
3.9753e-09
3.42739e-09
3.96443e-09
3.61537e-09
2.73553e-09
2.80129e-09
3.69627e-09
3.88194e-09
3.87442e-09
2.63879e-09
2.68438e-09
2.80407e-09
3.9257e-09
3.93773e-09
4.17406e-09
4.17701e-09
2.84642e-09
2.96083e-09
3.77288e-09
4.04686e-09
4.03964e-09
4.3002e-09
3.68763e-09
4.29003e-09
3.93925e-09
2.83797e-09
2.96781e-09
3.94419e-09
4.20997e-09
4.1925e-09
2.79743e-09
2.87065e-09
3.08009e-09
4.27046e-09
4.27227e-09
4.61329e-09
4.60562e-09
3.02487e-09
3.23074e-09
4.14264e-09
4.39933e-09
4.49722e-09
4.74443e-09
4.03769e-09
4.73541e-09
4.38484e-09
3.03478e-09
3.24391e-09
4.28818e-09
4.6564e-09
4.63087e-09
3.06243e-09
3.18316e-09
3.55723e-09
4.74581e-09
4.73708e-09
5.22621e-09
5.21306e-09
3.3353e-09
3.70925e-09
4.63719e-09
4.87853e-09
5.13763e-09
5.35794e-09
4.51732e-09
5.36287e-09
4.99891e-09
3.35044e-09
3.72731e-09
4.76453e-09
5.27738e-09
5.24958e-09
3.54249e-09
3.73027e-09
4.33254e-09
5.41281e-09
5.39323e-09
6.08574e-09
6.07295e-09
3.87136e-09
4.5343e-09
5.33135e-09
5.54835e-09
6.00912e-09
6.23574e-09
5.18922e-09
6.25144e-09
5.85785e-09
3.9023e-09
4.54723e-09
5.43544e-09
6.15214e-09
6.10353e-09
4.29865e-09
4.621e-09
5.80058e-09
6.35248e-09
6.34876e-09
7.35808e-09
7.26563e-09
4.84409e-09
5.7951e-09
6.28242e-09
6.50791e-09
7.31286e-09
7.50335e-09
6.12346e-09
7.47835e-09
7.10822e-09
4.8373e-09
5.94464e-09
6.37932e-09
7.40477e-09
7.36216e-09
5.69452e-09
6.27436e-09
7.80591e-09
7.73015e-09
7.64798e-09
9.04002e-09
9.03888e-09
6.28346e-09
8.18306e-09
7.69118e-09
7.91296e-09
9.00075e-09
9.26324e-09
7.51036e-09
9.28963e-09
8.79155e-09
6.48018e-09
8.17278e-09
7.76351e-09
9.15603e-09
9.07612e-09
7.77312e-09
8.72706e-09
1.2565e-08
9.66579e-09
9.62144e-09
1.17666e-08
1.16843e-08
9.01229e-09
1.2507e-08
9.63042e-09
9.80982e-09
1.17359e-08
1.20177e-08
9.34164e-09
1.19529e-08
1.16159e-08
8.87351e-09
1.28375e-08
9.631e-09
1.18791e-08
1.18842e-08
1.27439e-08
1.35737e-08
1.84072e-08
1.24639e-08
1.24077e-08
1.52244e-08
1.51425e-08
1.36665e-08
1.84526e-08
1.24386e-08
1.28531e-08
1.52275e-08
1.55215e-08
1.23947e-08
1.54268e-08
1.48907e-08
1.43451e-08
1.88774e-08
1.26568e-08
1.5333e-08
1.52041e-08
1.79491e-08
2.06087e-08
2.96785e-08
1.63514e-08
1.62862e-08
2.02548e-08
2.0221e-08
2.0639e-08
3.00815e-08
1.63591e-08
1.6602e-08
2.0266e-08
2.06832e-08
1.60133e-08
2.05341e-08
2.00385e-08
2.068e-08
3.04644e-08
1.63423e-08
2.04512e-08
2.03795e-08
2.99379e-08
3.29859e-08
4.87191e-08
2.18333e-08
2.17856e-08
2.7299e-08
2.72746e-08
3.33727e-08
4.89446e-08
2.1851e-08
2.23062e-08
2.73691e-08
2.77549e-08
2.15407e-08
2.75791e-08
2.7009e-08
3.39922e-08
4.94893e-08
2.18969e-08
2.74877e-08
2.73652e-08
4.81856e-08
5.34683e-08
7.48446e-08
2.93296e-08
2.93078e-08
3.63277e-08
3.62703e-08
5.37899e-08
7.48523e-08
2.94049e-08
2.9829e-08
3.63582e-08
3.69784e-08
2.91361e-08
3.66014e-08
3.60727e-08
5.42904e-08
7.66551e-08
2.94734e-08
3.67218e-08
3.64818e-08
7.49318e-08
8.1681e-08
1.13775e-07
3.90106e-08
3.89983e-08
4.82113e-08
4.81255e-08
8.16123e-08
1.135e-07
3.90947e-08
3.96593e-08
4.84433e-08
4.88705e-08
3.87284e-08
4.85873e-08
4.80003e-08
8.33818e-08
1.14767e-07
3.91428e-08
4.85714e-08
4.83953e-08
1.13351e-07
1.22938e-07
1.62956e-07
5.16282e-08
5.1485e-08
6.2743e-08
6.29306e-08
1.22379e-07
1.62835e-07
5.18076e-08
5.2291e-08
6.28307e-08
6.35552e-08
5.13883e-08
6.32512e-08
6.27055e-08
1.24109e-07
1.65352e-07
5.18034e-08
6.31495e-08
6.29925e-08
1.63289e-07
1.74152e-07
2.26708e-07
6.68702e-08
6.71143e-08
8.06973e-08
8.06978e-08
1.74318e-07
2.24553e-07
6.70814e-08
6.77395e-08
8.12125e-08
8.14208e-08
6.6912e-08
8.10498e-08
8.05095e-08
1.76587e-07
2.27422e-07
6.71252e-08
8.07272e-08
8.06816e-08
2.2568e-07
2.40655e-07
2.97656e-07
8.56408e-08
8.57484e-08
1.01405e-07
1.02147e-07
2.3806e-07
2.98247e-07
8.61027e-08
8.63184e-08
1.01763e-07
1.02113e-07
8.54553e-08
1.02708e-07
1.01595e-07
2.41001e-07
2.98389e-07
8.56103e-08
1.01495e-07
1.01508e-07
2.97678e-07
3.12522e-07
3.76154e-07
1.07065e-07
1.07782e-07
1.25777e-07
1.26397e-07
3.13538e-07
3.75626e-07
1.07573e-07
1.07862e-07
1.26529e-07
1.26627e-07
1.0731e-07
1.27182e-07
1.25758e-07
3.13418e-07
3.76083e-07
1.07141e-07
1.25686e-07
1.25486e-07
3.75217e-07
3.9271e-07
4.55711e-07
1.32555e-07
1.33231e-07
1.53573e-07
1.54229e-07
3.92117e-07
4.55768e-07
1.33262e-07
1.33171e-07
1.5459e-07
1.54057e-07
1.3241e-07
1.56215e-07
1.53707e-07
3.92009e-07
4.5447e-07
1.32131e-07
1.53438e-07
1.53351e-07
4.5488e-07
4.71763e-07
5.32692e-07
1.60962e-07
1.6148e-07
1.85259e-07
1.85229e-07
4.71555e-07
5.30432e-07
1.62157e-07
1.61692e-07
1.86704e-07
1.85609e-07
1.61221e-07
1.88315e-07
1.84939e-07
4.7095e-07
5.30484e-07
1.60833e-07
1.84578e-07
1.84487e-07
5.3087e-07
5.48825e-07
6.02088e-07
1.93775e-07
1.93698e-07
2.19779e-07
2.20087e-07
5.46573e-07
6.01913e-07
1.95534e-07
1.93749e-07
2.23075e-07
2.19778e-07
1.93303e-07
2.23531e-07
2.20166e-07
5.45868e-07
6.00743e-07
1.92817e-07
2.19072e-07
2.1944e-07
6.02649e-07
6.16598e-07
6.65603e-07
2.28814e-07
2.292e-07
2.57566e-07
2.58509e-07
6.16646e-07
6.66195e-07
2.3241e-07
2.29051e-07
2.61122e-07
2.57896e-07
2.29555e-07
2.60833e-07
2.58216e-07
6.16213e-07
6.66006e-07
2.28745e-07
2.57033e-07
2.57496e-07
6.67267e-07
6.79917e-07
7.2339e-07
2.67592e-07
2.6908e-07
2.98237e-07
3.01552e-07
6.80855e-07
7.24714e-07
2.71137e-07
2.67912e-07
3.0189e-07
2.99521e-07
2.68131e-07
3.00923e-07
2.99283e-07
6.79918e-07
7.23866e-07
2.6754e-07
2.98114e-07
2.98906e-07
7.25139e-07
7.36295e-07
7.75494e-07
3.08759e-07
3.12194e-07
3.42227e-07
3.44534e-07
7.37101e-07
7.7287e-07
3.12292e-07
3.10382e-07
3.44487e-07
3.42973e-07
3.09899e-07
3.41838e-07
3.42893e-07
7.37211e-07
7.75419e-07
3.09534e-07
3.41613e-07
3.42476e-07
7.77006e-07
7.88079e-07
8.23268e-07
3.53877e-07
3.55843e-07
3.89315e-07
3.90238e-07
7.85094e-07
8.1986e-07
3.55562e-07
3.53945e-07
3.89325e-07
3.87878e-07
3.54348e-07
3.8661e-07
3.89021e-07
7.87245e-07
8.20772e-07
3.53853e-07
3.86927e-07
3.88341e-07
8.22864e-07
8.34406e-07
8.63528e-07
4.01242e-07
4.01446e-07
4.37172e-07
4.35144e-07
8.30842e-07
8.59646e-07
4.00732e-07
3.99397e-07
4.35205e-07
4.34187e-07
4.00681e-07
4.32457e-07
4.3644e-07
8.3198e-07
8.62097e-07
4.00069e-07
4.33963e-07
4.36178e-07
8.63946e-07
8.7329e-07
8.9764e-07
4.49111e-07
4.4671e-07
4.84702e-07
4.81887e-07
8.69728e-07
8.96431e-07
4.46811e-07
4.4594e-07
4.81818e-07
4.81419e-07
4.48375e-07
4.8024e-07
4.83503e-07
8.72098e-07
8.97277e-07
4.48186e-07
4.81522e-07
4.83483e-07
8.95642e-07
9.06268e-07
9.26385e-07
4.96474e-07
4.93557e-07
5.30709e-07
5.27527e-07
9.05556e-07
9.27168e-07
4.93484e-07
4.93169e-07
5.27336e-07
5.27446e-07
4.95093e-07
5.27544e-07
5.28671e-07
9.06063e-07
9.27266e-07
4.9518e-07
5.27959e-07
5.29204e-07
9.24461e-07
9.34133e-07
9.5534e-07
5.4173e-07
5.38535e-07
5.75517e-07
5.72953e-07
9.35174e-07
9.56923e-07
5.38201e-07
5.38633e-07
5.71937e-07
5.73599e-07
5.39309e-07
5.73026e-07
5.72385e-07
9.35326e-07
9.57245e-07
5.39997e-07
5.73841e-07
5.73138e-07
9.55327e-07
9.64039e-07
9.8537e-07
5.87152e-07
5.84966e-07
6.19423e-07
6.1818e-07
9.65649e-07
9.86413e-07
5.83825e-07
5.85705e-07
6.17013e-07
6.18966e-07
5.84167e-07
6.18089e-07
6.17643e-07
9.65878e-07
9.86288e-07
5.8483e-07
6.18772e-07
6.18027e-07
9.85818e-07
9.91282e-07
9.92825e-07
6.28099e-07
6.27084e-07
6.46808e-07
6.4612e-07
9.92168e-07
9.93052e-07
6.26009e-07
6.27804e-07
6.45335e-07
6.46601e-07
6.26808e-07
6.46269e-07
6.46625e-07
9.91997e-07
9.92934e-07
6.27101e-07
6.46595e-07
6.4673e-07
9.93652e-07
9.94621e-07
9.82205e-07
6.50717e-07
6.50121e-07
6.59358e-07
6.58855e-07
9.94835e-07
9.82143e-07
6.49439e-07
6.5047e-07
6.58337e-07
6.58967e-07
6.50773e-07
6.5884e-07
6.59504e-07
9.94709e-07
9.8208e-07
6.50827e-07
6.59082e-07
6.59514e-07
9.82862e-07
9.83631e-07
9.75453e-07
6.62206e-07
6.61734e-07
6.73559e-07
6.73171e-07
9.83559e-07
9.752e-07
6.61271e-07
6.61792e-07
6.72847e-07
6.73179e-07
6.62326e-07
6.7295e-07
6.73504e-07
9.83495e-07
9.75272e-07
6.62325e-07
6.73181e-07
6.73455e-07
9.75663e-07
9.78205e-07
9.88471e-07
6.79272e-07
6.78911e-07
7.04667e-07
7.04442e-07
9.77935e-07
9.88219e-07
6.78634e-07
6.78936e-07
7.04238e-07
7.04528e-07
6.7917e-07
7.04171e-07
7.04529e-07
9.78036e-07
9.88407e-07
6.79102e-07
7.04366e-07
7.04392e-07
9.8847e-07
9.95516e-07
1.02365e-06
7.1607e-07
7.15897e-07
7.53561e-07
7.53486e-07
9.95289e-07
1.0235e-06
7.15706e-07
7.15999e-07
7.53273e-07
7.53592e-07
7.15954e-07
7.53247e-07
7.53564e-07
9.95484e-07
1.02371e-06
7.15798e-07
7.53418e-07
7.53395e-07
1.02369e-06
1.03286e-06
1.06851e-06
7.66265e-07
7.66216e-07
8.04679e-07
8.04681e-07
1.03273e-06
1.06841e-06
7.66015e-07
7.66321e-07
8.045e-07
8.04773e-07
7.66296e-07
8.04479e-07
8.04756e-07
1.03293e-06
1.06859e-06
7.66127e-07
8.04615e-07
8.04605e-07
1.06857e-06
1.07912e-06
1.11695e-06
8.17375e-07
8.17385e-07
8.51895e-07
8.51919e-07
1.07903e-06
1.11686e-06
8.17218e-07
8.17472e-07
8.51763e-07
8.51986e-07
8.17459e-07
8.51727e-07
8.51988e-07
1.0792e-06
1.11701e-06
8.17315e-07
8.51853e-07
8.5186e-07
1.11703e-06
1.12644e-06
1.15137e-06
8.61422e-07
8.61448e-07
8.82993e-07
8.83022e-07
1.12635e-06
1.15128e-06
8.61301e-07
8.61511e-07
8.82879e-07
8.83075e-07
8.61515e-07
8.82836e-07
8.83084e-07
1.12649e-06
1.15141e-06
8.61391e-07
8.82957e-07
8.82967e-07
1.15144e-06
1.1578e-06
1.16993e-06
8.88064e-07
8.88093e-07
8.9845e-07
8.98478e-07
1.15771e-06
1.16985e-06
8.87956e-07
8.88145e-07
8.98339e-07
8.98528e-07
8.88154e-07
8.98303e-07
8.98538e-07
1.15783e-06
1.16997e-06
8.88038e-07
8.98415e-07
8.98424e-07
1.17001e-06
1.17398e-06
1.1782e-06
9.00672e-07
9.00699e-07
9.04925e-07
9.04952e-07
1.1739e-06
1.17812e-06
9.00564e-07
9.0075e-07
9.04814e-07
9.05003e-07
9.0076e-07
9.04787e-07
9.05014e-07
1.17402e-06
1.17825e-06
9.00647e-07
9.04893e-07
9.04903e-07
1.17829e-06
1.18101e-06
1.1816e-06
9.0578e-07
9.05807e-07
9.07378e-07
9.07407e-07
1.18094e-06
1.18152e-06
9.05672e-07
9.05858e-07
9.07269e-07
9.07455e-07
9.05869e-07
9.07246e-07
9.07467e-07
1.18106e-06
1.18164e-06
9.05759e-07
9.07348e-07
9.07359e-07
1.18168e-06
1.18389e-06
1.18285e-06
9.07694e-07
9.07724e-07
9.08261e-07
9.08292e-07
1.18382e-06
1.18278e-06
9.07588e-07
9.07772e-07
9.08153e-07
9.08337e-07
9.07784e-07
9.0813e-07
9.0835e-07
1.18393e-06
1.18289e-06
9.07676e-07
9.08231e-07
9.08243e-07
1.18294e-06
1.18496e-06
1.18316e-06
9.08352e-07
9.08382e-07
9.08437e-07
9.08467e-07
1.18489e-06
1.18309e-06
9.08245e-07
9.08427e-07
9.08328e-07
9.08512e-07
9.08441e-07
9.08305e-07
9.08527e-07
1.185e-06
1.1832e-06
9.08333e-07
9.08407e-07
9.08418e-07
1.18325e-06
1.1852e-06
1.18288e-06
9.08424e-07
9.08453e-07
9.08376e-07
9.08404e-07
1.18513e-06
1.18281e-06
9.08315e-07
9.08498e-07
9.08266e-07
9.0845e-07
9.08514e-07
9.08242e-07
9.08466e-07
1.18524e-06
1.18293e-06
9.08405e-07
9.08346e-07
9.08357e-07
1.18297e-06
1.18492e-06
1.18314e-06
9.08377e-07
9.08406e-07
9.08459e-07
9.08488e-07
1.18485e-06
1.18307e-06
9.08268e-07
9.08451e-07
9.08348e-07
9.08532e-07
9.08467e-07
9.08326e-07
9.08547e-07
1.18496e-06
1.18318e-06
9.08358e-07
9.08428e-07
9.08437e-07
1.18323e-06
1.18522e-06
1.18317e-06
9.08472e-07
9.085e-07
9.08447e-07
9.08474e-07
1.18515e-06
1.18309e-06
9.08362e-07
9.08544e-07
9.08336e-07
9.08519e-07
9.0856e-07
9.08312e-07
9.08534e-07
1.18526e-06
1.1832e-06
9.0845e-07
9.08414e-07
9.08425e-07
1.18325e-06
1.18514e-06
1.183e-06
9.08428e-07
9.08455e-07
9.08407e-07
9.08435e-07
1.18507e-06
1.18293e-06
9.08318e-07
9.085e-07
9.08296e-07
9.0848e-07
9.08515e-07
9.08273e-07
9.08496e-07
1.18518e-06
1.18305e-06
9.08406e-07
9.08377e-07
9.08387e-07
1.1831e-06
1.18504e-06
1.1832e-06
9.08411e-07
9.0844e-07
9.08452e-07
9.08479e-07
1.18498e-06
1.18311e-06
9.083e-07
9.08485e-07
9.0834e-07
9.08524e-07
9.08501e-07
9.08317e-07
9.08539e-07
1.18509e-06
1.18323e-06
9.08392e-07
9.0842e-07
9.08428e-07
1.18328e-06
1.18519e-06
1.18297e-06
9.0844e-07
9.08467e-07
9.08415e-07
9.08443e-07
1.18511e-06
1.1829e-06
9.08329e-07
9.08512e-07
9.08302e-07
9.08487e-07
9.08527e-07
9.08281e-07
9.08504e-07
1.18522e-06
1.18302e-06
9.08414e-07
9.08384e-07
9.08392e-07
1.18306e-06
1.18502e-06
1.18315e-06
9.08418e-07
9.08447e-07
9.08437e-07
9.08463e-07
1.18497e-06
1.18307e-06
9.08306e-07
9.0849e-07
9.08325e-07
9.08508e-07
9.08507e-07
9.08301e-07
9.08523e-07
1.18508e-06
1.18319e-06
9.08397e-07
9.08405e-07
9.08414e-07
1.18323e-06
1.18515e-06
1.18304e-06
9.0843e-07
9.08456e-07
9.08429e-07
9.08457e-07
1.18507e-06
1.18298e-06
9.08318e-07
9.085e-07
9.08314e-07
9.08498e-07
9.08516e-07
9.08295e-07
9.08517e-07
1.18519e-06
1.18309e-06
9.08407e-07
9.08398e-07
9.08406e-07
1.18314e-06
1.18511e-06
1.18309e-06
9.08429e-07
9.08457e-07
9.08429e-07
9.08454e-07
1.18504e-06
1.183e-06
9.08314e-07
9.08498e-07
9.08316e-07
9.08499e-07
9.08517e-07
9.08293e-07
9.08515e-07
1.18515e-06
1.18311e-06
9.08406e-07
9.08396e-07
9.08405e-07
1.18316e-06
1.18509e-06
1.18313e-06
9.08428e-07
9.08453e-07
9.08431e-07
9.08459e-07
1.185e-06
1.18307e-06
9.08316e-07
9.08498e-07
9.08315e-07
9.085e-07
9.08515e-07
9.08295e-07
9.08518e-07
1.18511e-06
1.18319e-06
9.08405e-07
9.08399e-07
9.08407e-07
1.18323e-06
1.18517e-06
1.18304e-06
9.08428e-07
9.08454e-07
9.08429e-07
9.08456e-07
1.18511e-06
1.18297e-06
9.08315e-07
9.08498e-07
9.08315e-07
9.08501e-07
9.08515e-07
9.08295e-07
9.08517e-07
1.18521e-06
1.1831e-06
9.08404e-07
9.08398e-07
9.08406e-07
1.18314e-06
1.18509e-06
1.18306e-06
9.08429e-07
9.08457e-07
9.08425e-07
9.08452e-07
1.18503e-06
1.18298e-06
9.08315e-07
9.08501e-07
9.08312e-07
9.08496e-07
9.08518e-07
9.08291e-07
9.08513e-07
1.18515e-06
1.18309e-06
9.08407e-07
9.08394e-07
9.08402e-07
1.18314e-06
1.18507e-06
1.18313e-06
9.08424e-07
9.08452e-07
9.0843e-07
9.08455e-07
1.185e-06
1.18303e-06
9.08312e-07
9.08496e-07
9.08316e-07
9.08498e-07
9.08513e-07
9.08293e-07
9.08515e-07
1.18511e-06
1.18313e-06
9.08402e-07
9.08396e-07
9.08405e-07
1.18319e-06
1.18514e-06
1.18311e-06
9.08427e-07
9.08453e-07
9.08429e-07
9.08457e-07
1.18503e-06
1.18305e-06
9.08314e-07
9.08496e-07
9.08315e-07
9.085e-07
9.08511e-07
9.08298e-07
9.08521e-07
1.18513e-06
1.18317e-06
9.084e-07
9.08401e-07
9.0841e-07
1.18323e-06
1.18516e-06
1.18305e-06
9.08429e-07
9.08455e-07
9.08428e-07
9.08456e-07
1.18507e-06
1.18303e-06
9.08315e-07
9.08499e-07
9.08314e-07
9.08499e-07
9.08518e-07
9.08289e-07
9.0851e-07
1.18518e-06
1.18315e-06
9.08408e-07
9.08391e-07
9.084e-07
1.18315e-06
1.18509e-06
1.18306e-06
9.08428e-07
9.08456e-07
9.08429e-07
9.08455e-07
1.18508e-06
1.18299e-06
9.08314e-07
9.08499e-07
9.08315e-07
9.08498e-07
9.08516e-07
9.08292e-07
9.08516e-07
1.18519e-06
1.18311e-06
9.08405e-07
9.08393e-07
9.08405e-07
1.18315e-06
1.18508e-06
1.1831e-06
9.08429e-07
9.08456e-07
9.08428e-07
9.08453e-07
1.18505e-06
1.18297e-06
9.08315e-07
9.08499e-07
9.08313e-07
9.08495e-07
9.08514e-07
9.08291e-07
9.08514e-07
1.18516e-06
1.18311e-06
9.08403e-07
9.08392e-07
9.08403e-07
1.18311e-06
1.18511e-06
1.18311e-06
9.08428e-07
9.08454e-07
9.08428e-07
9.08454e-07
1.18501e-06
1.18301e-06
9.08315e-07
9.08497e-07
9.08312e-07
9.08495e-07
9.08514e-07
9.08289e-07
9.08518e-07
1.18514e-06
1.18312e-06
9.08403e-07
9.0839e-07
9.08408e-07
1.18324e-06
1.18513e-06
1.1831e-06
9.08427e-07
9.08454e-07
9.08429e-07
9.08452e-07
1.18503e-06
1.18299e-06
9.08312e-07
9.08496e-07
9.08314e-07
9.08495e-07
9.08518e-07
9.08288e-07
9.08512e-07
1.18516e-06
1.18305e-06
9.0841e-07
9.08386e-07
9.08399e-07
1.18312e-06
1.18515e-06
1.18307e-06
9.08431e-07
9.08451e-07
9.08425e-07
9.08457e-07
1.18498e-06
1.18309e-06
9.08316e-07
9.08495e-07
9.08311e-07
9.08498e-07
9.08513e-07
9.08293e-07
9.08517e-07
1.18509e-06
1.18313e-06
9.08403e-07
9.0839e-07
9.08406e-07
1.18316e-06
1.18508e-06
1.18315e-06
9.08425e-07
9.08456e-07
9.08428e-07
9.08452e-07
1.18508e-06
1.18304e-06
9.08311e-07
9.08499e-07
9.08313e-07
9.08494e-07
9.08517e-07
9.08287e-07
9.08514e-07
1.18512e-06
1.18318e-06
9.08403e-07
9.08387e-07
9.08406e-07
1.18325e-06
1.18521e-06
1.18302e-06
9.08433e-07
9.08458e-07
9.08417e-07
9.08445e-07
1.18512e-06
1.18292e-06
9.08318e-07
9.08498e-07
9.08303e-07
9.08489e-07
9.08517e-07
9.08282e-07
9.08509e-07
1.18521e-06
1.18312e-06
9.08409e-07
9.08381e-07
9.08397e-07
1.18318e-06
1.18507e-06
1.18309e-06
9.08421e-07
9.08449e-07
9.08418e-07
9.08445e-07
1.18497e-06
1.18302e-06
9.08307e-07
9.08493e-07
9.08305e-07
9.08491e-07
9.08513e-07
9.08284e-07
9.08508e-07
1.18515e-06
1.18319e-06
9.08404e-07
9.08384e-07
9.08395e-07
1.18312e-06
1.18511e-06
1.18306e-06
9.08421e-07
9.08448e-07
9.08413e-07
9.08443e-07
1.18502e-06
1.18302e-06
9.08307e-07
9.08495e-07
9.08299e-07
9.08487e-07
9.0851e-07
9.08282e-07
9.08509e-07
1.18522e-06
1.18308e-06
9.08397e-07
9.08378e-07
9.08396e-07
1.18318e-06
1.18511e-06
1.18303e-06
9.08419e-07
9.08449e-07
9.08413e-07
9.08443e-07
1.18507e-06
1.18296e-06
9.08305e-07
9.08493e-07
9.08296e-07
9.08485e-07
9.08513e-07
9.08277e-07
9.08504e-07
1.18514e-06
1.18308e-06
9.084e-07
9.08377e-07
9.08391e-07
1.18317e-06
1.18505e-06
1.18309e-06
9.08419e-07
9.08449e-07
9.08411e-07
9.08443e-07
1.18499e-06
1.18303e-06
9.08302e-07
9.0849e-07
9.08296e-07
9.08484e-07
9.08513e-07
9.08275e-07
9.08497e-07
1.18509e-06
1.18315e-06
9.08398e-07
9.08377e-07
9.08389e-07
1.1831e-06
1.18508e-06
1.18312e-06
9.0842e-07
9.08453e-07
9.08404e-07
9.08438e-07
1.18503e-06
1.18304e-06
9.08305e-07
9.08491e-07
9.08292e-07
9.08479e-07
9.0851e-07
9.08272e-07
9.08494e-07
1.18514e-06
1.18318e-06
9.084e-07
9.08371e-07
9.08381e-07
1.18307e-06
1.18512e-06
1.18313e-06
9.08416e-07
9.0845e-07
9.08404e-07
9.0844e-07
1.18504e-06
1.18309e-06
9.08306e-07
9.08492e-07
9.08289e-07
9.08474e-07
9.08506e-07
9.0827e-07
9.08491e-07
1.18518e-06
1.18317e-06
9.08396e-07
9.08369e-07
9.08377e-07
1.18312e-06
1.18515e-06
1.18311e-06
9.08419e-07
9.08453e-07
9.08397e-07
9.08429e-07
1.18511e-06
1.18301e-06
9.08306e-07
9.08492e-07
9.08286e-07
9.0847e-07
9.08506e-07
9.08262e-07
9.08488e-07
1.18521e-06
1.1831e-06
9.0839e-07
9.08365e-07
9.08375e-07
1.18321e-06
1.18515e-06
1.18309e-06
9.0842e-07
9.08453e-07
9.08393e-07
9.08422e-07
1.18509e-06
1.18294e-06
9.08307e-07
9.08492e-07
9.08282e-07
9.08468e-07
9.08508e-07
9.08255e-07
9.08484e-07
1.18516e-06
1.18309e-06
9.08395e-07
9.08356e-07
9.08366e-07
1.18325e-06
1.18516e-06
1.183e-06
9.08421e-07
9.08448e-07
9.08389e-07
9.08419e-07
1.18499e-06
1.18301e-06
9.08311e-07
9.08494e-07
9.08274e-07
9.08463e-07
9.08512e-07
9.08253e-07
9.08477e-07
1.18512e-06
1.18314e-06
9.08396e-07
9.08356e-07
9.08362e-07
1.18322e-06
1.18508e-06
1.18303e-06
9.08425e-07
9.08452e-07
9.08384e-07
9.08411e-07
1.18503e-06
1.18302e-06
9.08313e-07
9.08499e-07
9.08271e-07
9.08458e-07
9.08515e-07
9.08244e-07
9.08469e-07
1.18516e-06
1.18314e-06
9.08397e-07
9.08349e-07
9.08356e-07
1.18319e-06
1.18504e-06
1.18314e-06
9.08429e-07
9.08458e-07
9.08377e-07
9.084e-07
1.18507e-06
1.18297e-06
9.08316e-07
9.08505e-07
9.08266e-07
9.08448e-07
9.08517e-07
9.08237e-07
9.08463e-07
1.18519e-06
1.18309e-06
9.08402e-07
9.08339e-07
9.08347e-07
1.18316e-06
1.18516e-06
1.18307e-06
9.08437e-07
9.08462e-07
9.08367e-07
9.08392e-07
1.18504e-06
1.18295e-06
9.08327e-07
9.08511e-07
9.08255e-07
9.08439e-07
9.08522e-07
9.08229e-07
9.08455e-07
1.18515e-06
1.18307e-06
9.08408e-07
9.0833e-07
9.08337e-07
1.18314e-06
1.18515e-06
1.18301e-06
9.08445e-07
9.08468e-07
9.08358e-07
9.08384e-07
1.18501e-06
1.18296e-06
9.08331e-07
9.08515e-07
9.08247e-07
9.08432e-07
9.08531e-07
9.08221e-07
9.08444e-07
1.18512e-06
1.18309e-06
9.08415e-07
9.08322e-07
9.08327e-07
1.18315e-06
1.18509e-06
1.183e-06
9.08458e-07
9.08483e-07
9.08345e-07
9.08372e-07
1.18501e-06
1.18297e-06
9.08348e-07
9.08532e-07
9.0823e-07
9.08416e-07
9.08544e-07
9.08207e-07
9.08432e-07
1.18512e-06
1.18308e-06
9.08426e-07
9.0831e-07
9.08317e-07
1.18318e-06
1.18505e-06
1.18302e-06
9.08476e-07
9.08503e-07
9.08334e-07
9.0836e-07
1.18501e-06
1.18296e-06
9.08363e-07
9.08547e-07
9.08222e-07
9.08408e-07
9.08563e-07
9.08197e-07
9.08421e-07
1.18511e-06
1.18308e-06
9.08446e-07
9.08297e-07
9.08304e-07
1.18318e-06
1.18504e-06
1.18308e-06
9.08506e-07
9.08533e-07
9.08327e-07
9.08351e-07
1.185e-06
1.18296e-06
9.08391e-07
9.08578e-07
9.08216e-07
9.08403e-07
9.08593e-07
9.08188e-07
9.0841e-07
1.18511e-06
1.18311e-06
9.08477e-07
9.0829e-07
9.08292e-07
1.18316e-06
1.18508e-06
1.18287e-06
9.08551e-07
9.08573e-07
9.07926e-07
9.0795e-07
1.18499e-06
1.18277e-06
9.08438e-07
9.08623e-07
9.07807e-07
9.0799e-07
9.08632e-07
9.0779e-07
9.08007e-07
1.18512e-06
1.18292e-06
9.08513e-07
9.07881e-07
9.07883e-07
1.18294e-06
1.18479e-06
1.16269e-06
9.08257e-07
9.08279e-07
8.85581e-07
8.856e-07
1.18468e-06
1.16266e-06
9.08136e-07
9.08326e-07
8.8554e-07
8.85567e-07
9.08338e-07
8.8558e-07
8.85641e-07
1.18481e-06
1.16273e-06
9.08208e-07
8.85593e-07
8.85592e-07
1.16276e-06
1.13959e-06
8.51973e-07
8.51989e-07
1.13957e-06
8.51956e-07
8.51954e-07
3.65083e-07
3.65062e-07
3.65098e-07
8.52024e-07
1.13962e-06
8.52006e-07
2.98836e-08
4.7065e-09
1.95733e-08
1.9598e-08
1.46821e-09
4.31443e-09
1.08524e-08
1.1031e-08
1.51129e-09
4.61649e-09
1.09707e-08
6.28427e-09
5.21778e-09
7.59334e-09
3.6929e-09
7.39994e-09
1.65184e-07
5.84648e-09
2.6174e-07
1.59691e-06
3.22223e-06
7.38561e-09
1.65254e-07
5.89464e-09
2.60294e-07
1.10495e-08
1.11028e-08
1.09695e-08
1.08431e-08
1.09307e-08
1.10473e-08
1.08553e-08
1.49579e-09
8.57614e-08
5.14146e-09
4.74768e-09
1.49531e-09
6.39066e-08
5.08498e-09
1.62608e-06
3.21595e-06
1.44631e-09
6.9087e-09
9.11863e-08
7.86064e-09
1.49645e-09
6.79388e-09
6.90575e-08
2.18423e-07
2.15357e-07
4.84275e-09
1.8795e-07
1.84088e-07
1.76092e-08
4.74412e-07
1.18502e-08
6.67867e-07
7.1241e-06
1.01957e-05
1.71354e-08
4.7844e-07
1.21613e-08
6.66501e-07
1.09649e-08
1.10781e-08
1.08882e-08
1.09966e-08
1.10841e-08