/*--------------------------------*- C++ -*----------------------------------*\
| =========                 |                                                 |
| \\      /  F ield         | OpenFOAM: The Open Source CFD Toolbox           |
|  \\    /   O peration     | Version:  v1906                                 |
|   \\  /    A nd           | Web:      www.OpenFOAM.com                      |
|    \\/     M anipulation  |                                                 |
\*---------------------------------------------------------------------------*/
FoamFile
{
    version     2.0;
    format      ascii;
    class       volScalarField;
    location    "200";
    object      k;
}
// * * * * * * * * * * * * * * * * * * * * * * * * * * * * * * * * * * * * * //

dimensions      [0 2 -2 0 0 0 0];


internalField   nonuniform List<scalar> 
171728
(
1.42471e-06
3.65572e-07
4.57185e-07
3.57918e-07
1.41573e-06
3.51521e-07
4.8853e-07
3.45905e-07
1.4444e-06
3.43552e-07
5.34855e-07
3.33673e-07
1.47417e-06
3.37432e-07
5.6267e-07
3.2136e-07
1.50428e-06
3.31809e-07
5.29246e-07
3.09722e-07
1.5356e-06
3.28833e-07
4.26663e-07
3.00027e-07
1.56828e-06
3.27922e-07
3.52699e-07
2.90874e-07
1.60115e-06
3.27625e-07
3.27776e-07
2.78857e-07
1.63407e-06
3.29726e-07
3.29427e-07
2.65268e-07
1.66756e-06
3.34977e-07
3.32371e-07
2.55938e-07
1.70411e-06
3.43621e-07
3.38476e-07
2.48328e-07
1.74287e-06
3.52773e-07
3.48176e-07
2.43658e-07
1.78206e-06
3.64179e-07
3.61064e-07
2.42798e-07
1.82186e-06
3.78876e-07
3.77709e-07
2.44524e-07
1.86091e-06
3.98269e-07
3.97438e-07
2.49129e-07
1.90123e-06
4.22576e-07
4.23335e-07
2.57734e-07
1.94059e-06
4.53411e-07
4.56785e-07
2.71097e-07
1.97767e-06
4.96748e-07
4.99984e-07
2.92163e-07
2.01783e-06
5.47164e-07
5.54012e-07
3.41614e-07
2.05138e-06
6.19955e-07
6.25502e-07
4.13235e-07
2.09095e-06
7.34717e-07
7.3953e-07
6.379e-07
2.12837e-06
8.6124e-07
8.69429e-07
7.87862e-07
2.16767e-06
1.05263e-06
1.07039e-06
1.26616e-06
2.20969e-06
1.33663e-06
1.34547e-06
1.92587e-06
2.2557e-06
1.6708e-06
1.71266e-06
2.96645e-06
2.30901e-06
2.14411e-06
2.17888e-06
4.34085e-06
2.36432e-06
2.7069e-06
2.73566e-06
6.12945e-06
2.43562e-06
3.37376e-06
3.40764e-06
8.32392e-06
2.51525e-06
4.24867e-06
4.20503e-06
1.07531e-05
2.61354e-06
5.16404e-06
5.17183e-06
1.32521e-05
2.73246e-06
6.32162e-06
6.23961e-06
1.58159e-05
2.87532e-06
7.61489e-06
7.48423e-06
1.82014e-05
3.06161e-06
9.07944e-06
8.79622e-06
2.04702e-05
3.27801e-06
1.05138e-05
1.02805e-05
2.25584e-05
3.55141e-06
1.2135e-05
1.18602e-05
2.44053e-05
3.85499e-06
1.36496e-05
1.35597e-05
2.61096e-05
4.23274e-06
1.53252e-05
1.52848e-05
2.76532e-05
4.67389e-06
1.705e-05
1.71288e-05
2.92257e-05
5.21971e-06
1.89524e-05
1.90409e-05
3.06131e-05
5.88983e-06
2.10083e-05
2.09902e-05
3.17949e-05
6.62726e-06
2.29109e-05
2.29359e-05
3.30141e-05
7.70927e-06
2.53695e-05
2.54324e-05
3.48899e-05
8.73585e-06
2.71122e-05
2.71507e-05
3.59298e-05
9.18286e-06
2.7281e-05
2.7303e-05
3.56672e-05
9.11467e-06
2.67399e-05
2.67558e-05
3.47686e-05
9.24573e-06
2.68557e-05
2.68678e-05
3.44954e-05
1.08689e-05
2.9054e-05
2.90637e-05
3.58271e-05
1.35626e-05
3.18727e-05
3.18788e-05
3.78538e-05
1.75175e-05
3.53897e-05
3.53938e-05
4.06465e-05
2.15333e-05
3.83429e-05
3.83464e-05
4.30412e-05
2.42999e-05
4.00797e-05
4.00827e-05
4.44221e-05
2.57496e-05
4.08892e-05
4.08917e-05
4.50456e-05
2.63673e-05
4.12096e-05
4.12116e-05
4.53005e-05
2.66003e-05
4.13312e-05
4.13331e-05
4.53998e-05
2.6668e-05
4.13627e-05
4.13646e-05
4.54346e-05
2.66736e-05
4.13558e-05
4.13579e-05
4.54224e-05
2.66804e-05
4.13629e-05
4.13648e-05
4.54247e-05
2.66821e-05
4.13656e-05
4.13675e-05
4.54425e-05
2.66791e-05
4.13589e-05
4.13609e-05
4.54155e-05
2.66807e-05
4.13644e-05
4.13664e-05
4.54389e-05
2.66798e-05
4.13605e-05
4.13624e-05
4.54187e-05
2.66799e-05
4.13625e-05
4.13645e-05
4.54381e-05
2.66798e-05
4.1362e-05
4.13639e-05
4.54181e-05
2.66798e-05
4.13618e-05
4.13637e-05
4.54355e-05
2.66799e-05
4.13622e-05
4.13642e-05
4.54317e-05
2.66799e-05
4.13622e-05
4.13643e-05
4.542e-05
2.66799e-05
4.13617e-05
4.13634e-05
4.54278e-05
2.66799e-05
4.13618e-05
4.13637e-05
4.54362e-05
2.66799e-05
4.13629e-05
4.13648e-05
4.54329e-05
2.66799e-05
4.13619e-05
4.13637e-05
4.54206e-05
2.66801e-05
4.13619e-05
4.13639e-05
4.54236e-05
2.668e-05
4.13621e-05
4.1364e-05
4.5428e-05
2.66799e-05
4.13621e-05
4.13639e-05
4.54372e-05
2.66803e-05
4.13618e-05
4.13634e-05
4.54185e-05
2.66801e-05
4.1363e-05
4.13643e-05
4.54344e-05
2.66801e-05
4.13626e-05
4.13643e-05
4.54343e-05
2.66798e-05
4.13619e-05
4.13637e-05
4.54198e-05
2.66798e-05
4.13627e-05
4.13642e-05
4.54266e-05
2.66797e-05
4.13623e-05
4.13637e-05
4.54371e-05
2.66797e-05
4.13621e-05
4.13637e-05
4.54305e-05
2.66797e-05
4.13621e-05
4.13639e-05
4.5421e-05
2.66797e-05
4.1362e-05
4.13637e-05
4.54239e-05
2.66797e-05
4.13623e-05
4.13638e-05
4.54322e-05
2.66796e-05
4.1362e-05
4.13639e-05
4.54352e-05
2.66796e-05
4.13617e-05
4.13633e-05
4.54311e-05
2.66796e-05
4.13621e-05
4.13638e-05
4.54246e-05
2.66796e-05
4.13621e-05
4.13641e-05
4.54216e-05
2.66797e-05
4.1362e-05
4.13639e-05
4.5421e-05
2.66797e-05
4.13623e-05
4.1364e-05
4.54229e-05
2.66797e-05
4.1363e-05
4.13646e-05
4.5428e-05
2.66798e-05
4.13635e-05
4.13654e-05
4.54324e-05
2.668e-05
4.13647e-05
4.13665e-05
4.54319e-05
2.66799e-05
4.13667e-05
4.13682e-05
4.54298e-05
2.66702e-05
4.13575e-05
4.1359e-05
4.5425e-05
2.60823e-05
4.00486e-05
4.00484e-05
4.47842e-05
3.51568e-07
3.44023e-07
3.4351e-07
3.50796e-07
3.07778e-07
3.43556e-07
1.46507e-06
1.47535e-06
1.48184e-06
1.47013e-06
3.3641e-07
3.4643e-07
3.44947e-07
3.64113e-07
3.42488e-07
3.59885e-07
3.49037e-07
3.33743e-07
3.74986e-07
3.73643e-07
3.6461e-07
3.63326e-07
3.48285e-07
3.36556e-07
3.43393e-07
3.73087e-07
3.26437e-07
3.62757e-07
4.04341e-07
3.54511e-07
3.94859e-07
3.42443e-07
3.33732e-07
3.70346e-07
4.79244e-07
3.60998e-07
3.4805e-07
3.3045e-07
3.16872e-07
3.61189e-07
3.59942e-07
3.51901e-07
3.50856e-07
3.34342e-07
3.25699e-07
3.22652e-07
3.59595e-07
3.14273e-07
3.51196e-07
3.9232e-07
3.45087e-07
3.84798e-07
3.31987e-07
3.30571e-07
3.58166e-07
5.22957e-07
3.49778e-07
3.36052e-07
3.14562e-07
3.06189e-07
3.49337e-07
3.48335e-07
3.43255e-07
3.41813e-07
3.23767e-07
3.16014e-07
3.12187e-07
3.48859e-07
3.0813e-07
3.42793e-07
3.8186e-07
3.38794e-07
3.71636e-07
3.29176e-07
3.26778e-07
3.47353e-07
5.59938e-07
3.4138e-07
3.23713e-07
3.04435e-07
2.97543e-07
3.41496e-07
3.39877e-07
3.36498e-07
3.34667e-07
3.14096e-07
3.05845e-07
3.07202e-07
3.41033e-07
3.03226e-07
3.3619e-07
3.68508e-07
3.33154e-07
3.62222e-07
3.24207e-07
3.1358e-07
3.39262e-07
5.51365e-07
3.33459e-07
3.11956e-07
2.95675e-07
2.8723e-07
3.34844e-07
3.33241e-07
3.30706e-07
3.2952e-07
3.03727e-07
2.9603e-07
3.01547e-07
3.34787e-07
2.95948e-07
3.31553e-07
3.61098e-07
3.29192e-07
3.60995e-07
3.0864e-07
2.95288e-07
3.32211e-07
4.51891e-07
3.29951e-07
3.02026e-07
2.85006e-07
2.76237e-07
3.29603e-07
3.28358e-07
3.27769e-07
3.27388e-07
2.9425e-07
2.89055e-07
2.94429e-07
3.3056e-07
2.91105e-07
3.28963e-07
3.61532e-07
3.28452e-07
3.64566e-07
2.92485e-07
2.83832e-07
3.2937e-07
3.66289e-07
3.29004e-07
2.93172e-07
2.74173e-07
2.67057e-07
3.27665e-07
3.27463e-07
3.27966e-07
3.28871e-07
2.87644e-07
2.83603e-07
2.90781e-07
3.28553e-07
2.90961e-07
3.28528e-07
3.65052e-07
3.27515e-07
3.64809e-07
2.82205e-07
2.78694e-07
3.29017e-07
3.29824e-07
3.29326e-07
2.81565e-07
2.65231e-07
2.59353e-07
3.28358e-07
3.29941e-07
3.3004e-07
3.33169e-07
2.82293e-07
2.78494e-07
2.91273e-07
3.28713e-07
2.93754e-07
3.30313e-07
3.63782e-07
3.29108e-07
3.56233e-07
2.77361e-07
2.71667e-07
3.29627e-07
3.28404e-07
3.30867e-07
2.67878e-07
2.57803e-07
2.52406e-07
3.30805e-07
3.34262e-07
3.34342e-07
3.38627e-07
2.77195e-07
2.73339e-07
2.94745e-07
3.31209e-07
2.97646e-07
3.3459e-07
3.51817e-07
3.33822e-07
3.34982e-07
2.69968e-07
2.65622e-07
3.31448e-07
3.31812e-07
3.35151e-07
2.57705e-07
2.50872e-07
2.45717e-07
3.35514e-07
3.40133e-07
3.40274e-07
3.4602e-07
2.72272e-07
2.69314e-07
2.98838e-07
3.36123e-07
3.02971e-07
3.41516e-07
3.29679e-07
3.42011e-07
3.20085e-07
2.64506e-07
2.61738e-07
3.36566e-07
3.36636e-07
3.40543e-07
2.49916e-07
2.44443e-07
2.41676e-07
3.42182e-07
3.47458e-07
3.49421e-07
3.52491e-07
2.6824e-07
2.65178e-07
3.04815e-07
3.43577e-07
3.13232e-07
3.51416e-07
3.19032e-07
3.50259e-07
3.18763e-07
2.60844e-07
2.59046e-07
3.42311e-07
3.46016e-07
3.48754e-07
2.44477e-07
2.40953e-07
2.40156e-07
3.52376e-07
3.54653e-07
3.60925e-07
3.63708e-07
2.64292e-07
2.62766e-07
3.16743e-07
3.53972e-07
3.27253e-07
3.63409e-07
3.19261e-07
3.61367e-07
3.28392e-07
2.5839e-07
2.57692e-07
3.51186e-07
3.57592e-07
3.60893e-07
2.43076e-07
2.39787e-07
2.40195e-07
3.64214e-07
3.67731e-07
3.749e-07
3.78517e-07
2.62345e-07
2.62495e-07
3.30957e-07
3.67548e-07
3.4258e-07
3.79161e-07
3.33061e-07
3.74957e-07
3.46409e-07
2.5735e-07
2.58366e-07
3.6494e-07
3.73448e-07
3.76762e-07
2.44365e-07
2.40331e-07
2.42705e-07
3.78656e-07
3.82907e-07
3.91518e-07
3.97286e-07
2.62616e-07
2.65478e-07
3.47032e-07
3.8371e-07
3.61616e-07
3.98018e-07
3.51218e-07
3.9356e-07
3.66848e-07
2.58519e-07
2.61621e-07
3.80925e-07
3.92469e-07
3.94966e-07
2.48126e-07
2.43259e-07
2.49912e-07
3.96248e-07
4.02114e-07
4.14763e-07
4.21198e-07
2.6617e-07
2.72406e-07
3.67055e-07
4.03537e-07
3.86825e-07
4.23904e-07
3.71906e-07
4.16961e-07
3.9157e-07
2.62597e-07
2.69767e-07
3.99813e-07
4.16631e-07
4.17914e-07
2.56163e-07
2.51771e-07
2.62634e-07
4.21762e-07
4.27648e-07
4.45535e-07
4.51884e-07
2.74052e-07
2.85364e-07
3.93486e-07
4.30786e-07
4.18171e-07
4.5253e-07
3.98237e-07
4.45243e-07
4.19875e-07
2.71369e-07
2.81668e-07
4.24697e-07
4.47774e-07
4.47488e-07
2.6625e-07
2.67146e-07
2.85609e-07
4.54075e-07
4.60956e-07
4.84458e-07
4.88211e-07
2.90246e-07
3.03299e-07
4.27998e-07
4.60848e-07
4.59427e-07
4.89367e-07
4.29534e-07
4.83163e-07
4.58272e-07
2.85762e-07
3.04644e-07
4.56965e-07
4.87923e-07
4.85066e-07
2.85719e-07
2.92237e-07
3.31446e-07
4.95036e-07
5.01267e-07
5.36501e-07
5.33694e-07
3.14085e-07
3.43893e-07
4.70132e-07
5.01596e-07
5.14716e-07
5.39018e-07
4.69916e-07
5.31899e-07
5.05539e-07
3.12985e-07
3.42982e-07
4.97225e-07
5.37131e-07
5.35617e-07
3.27046e-07
3.51756e-07
3.83661e-07
5.56158e-07
5.47006e-07
5.92455e-07
5.92545e-07
3.52398e-07
4.16577e-07
5.35814e-07
5.56763e-07
5.70767e-07
6.13964e-07
5.23446e-07
6.01143e-07
5.74576e-07
3.57436e-07
4.29562e-07
5.53845e-07
6.10583e-07
6.05414e-07
4.03609e-07
3.93225e-07
6.04476e-07
6.11271e-07
6.09614e-07
7.08589e-07
6.94827e-07
4.36812e-07
5.85907e-07
5.90216e-07
6.2912e-07
6.90187e-07
7.07949e-07
5.84942e-07
7.07498e-07
6.73185e-07
4.42406e-07
5.58616e-07
6.17884e-07
7.03374e-07
7.06977e-07
5.5915e-07
6.44954e-07
7.31606e-07
7.31499e-07
7.21341e-07
8.17659e-07
8.02888e-07
6.35822e-07
7.45299e-07
7.11778e-07
7.45825e-07
8.01361e-07
8.47252e-07
7.12864e-07
8.21241e-07
7.88705e-07
6.25773e-07
8.26198e-07
7.44386e-07
8.37866e-07
8.20949e-07
7.60304e-07
8.03643e-07
1.13466e-06
8.59375e-07
8.44072e-07
9.91683e-07
9.83382e-07
8.06599e-07
1.15758e-06
8.45421e-07
8.80326e-07
9.777e-07
1.01909e-06
8.21443e-07
9.98312e-07
9.75992e-07
8.61311e-07
1.14281e-06
8.56411e-07
1.0085e-06
1.00914e-06
1.15449e-06
1.22593e-06
1.81667e-06
1.04762e-06
1.03716e-06
1.25432e-06
1.24392e-06
1.25585e-06
1.82263e-06
1.03286e-06
1.08235e-06
1.24785e-06
1.28652e-06
1.02833e-06
1.25812e-06
1.2161e-06
1.26093e-06
1.86183e-06
1.06175e-06
1.27054e-06
1.25538e-06
1.7494e-06
1.99063e-06
2.71165e-06
1.32987e-06
1.32436e-06
1.58359e-06
1.56436e-06
1.99777e-06
2.73808e-06
1.32774e-06
1.36185e-06
1.57126e-06
1.62797e-06
1.30324e-06
1.57558e-06
1.56457e-06
2.0216e-06
2.80697e-06
1.33891e-06
1.61714e-06
1.60129e-06
2.7698e-06
2.92444e-06
4.05901e-06
1.67824e-06
1.66252e-06
2.01103e-06
2.00797e-06
2.93567e-06
4.08258e-06
1.66348e-06
1.72258e-06
2.01789e-06
2.05573e-06
1.65237e-06
2.01981e-06
1.99784e-06
3.0368e-06
4.08922e-06
1.69119e-06
2.04657e-06
2.02981e-06
4.01229e-06
4.37291e-06
5.78227e-06
2.14434e-06
2.12645e-06
2.55057e-06
2.53797e-06
4.3943e-06
5.73134e-06
2.15247e-06
2.18535e-06
2.52968e-06
2.58953e-06
2.12654e-06
2.553e-06
2.5317e-06
4.39483e-06
5.88848e-06
2.16125e-06
2.59073e-06
2.56789e-06
5.7745e-06
6.12213e-06
7.84976e-06
2.6932e-06
2.70118e-06
3.20854e-06
3.19242e-06
6.10565e-06
7.84053e-06
2.67178e-06
2.74259e-06
3.22543e-06
3.25966e-06
2.69182e-06
3.19453e-06
3.20156e-06
6.24908e-06
7.94808e-06
2.71987e-06
3.22446e-06
3.21981e-06
7.88357e-06
8.33711e-06
1.03177e-05
3.39971e-06
3.36761e-06
3.99774e-06
4.02221e-06
8.25618e-06
1.02517e-05
3.42238e-06
3.44604e-06
3.98281e-06
4.02873e-06
3.38005e-06
4.0257e-06
3.99305e-06
8.40174e-06
1.03328e-05
3.40095e-06
3.99418e-06
4.00826e-06
1.0257e-05
1.07658e-05
1.27233e-05
4.2044e-06
4.24146e-06
4.88131e-06
4.89648e-06
1.07769e-05
1.27339e-05
4.1876e-06
4.23361e-06
4.90653e-06
4.96122e-06
4.21283e-06
4.91334e-06
4.90081e-06
1.07998e-05
1.28281e-05
4.22126e-06
4.92532e-06
4.89587e-06
1.27582e-05
1.32484e-05
1.53608e-05
5.1472e-06
5.1654e-06
5.976e-06
6.02854e-06
1.32169e-05
1.53867e-05
5.16792e-06
5.22364e-06
5.98044e-06
5.97744e-06
5.15148e-06
6.01527e-06
5.96632e-06
1.33393e-05
1.52773e-05
5.14599e-06
5.93759e-06
5.95861e-06
1.53007e-05
1.5853e-05
1.77102e-05
6.23775e-06
6.30073e-06
7.13387e-06
7.16705e-06
1.59123e-05
1.77031e-05
6.25802e-06
6.25702e-06
7.13577e-06
7.22153e-06
6.25437e-06
7.27972e-06
7.15222e-06
1.57796e-05
1.77937e-05
6.24576e-06
7.19313e-06
7.14435e-06
1.77171e-05
1.82354e-05
2.01185e-05
7.48007e-06
7.48626e-06
8.52442e-06
8.49716e-06
1.81909e-05
2.00769e-05
7.4604e-06
7.53848e-06
8.55792e-06
8.48933e-06
7.45967e-06
8.71119e-06
8.46659e-06
1.82817e-05
1.99124e-05
7.45163e-06
8.42873e-06
8.44801e-06
1.99872e-05
2.05655e-05
2.20596e-05
8.86614e-06
8.83269e-06
9.92982e-06
9.84809e-06
2.05418e-05
2.20053e-05
8.94335e-06
8.83689e-06
1.00771e-05
9.92292e-06
8.84221e-06
1.01422e-05
9.96586e-06
2.03828e-05
2.20981e-05
8.81274e-06
9.9196e-06
9.9066e-06
2.21235e-05
2.25019e-05
2.40094e-05
1.03108e-05
1.02298e-05
1.14812e-05
1.15575e-05
2.24455e-05
2.41168e-05
1.04714e-05
1.02876e-05
1.1728e-05
1.14744e-05
1.03284e-05
1.17309e-05
1.15177e-05
2.25307e-05
2.3919e-05
1.02734e-05
1.14343e-05
1.14889e-05
2.39892e-05
2.44067e-05
2.56355e-05
1.18587e-05
1.20027e-05
1.30587e-05
1.32242e-05
2.45491e-05
2.56767e-05
1.21371e-05
1.19091e-05
1.33457e-05
1.32188e-05
1.19266e-05
1.32728e-05
1.31313e-05
2.43413e-05
2.57406e-05
1.19012e-05
1.31523e-05
1.31201e-05
2.5724e-05
2.60262e-05
2.73346e-05
1.35018e-05
1.36476e-05
1.4885e-05
1.50854e-05
2.60252e-05
2.72882e-05
1.376e-05
1.3636e-05
1.50293e-05
1.49239e-05
1.35616e-05
1.48886e-05
1.49038e-05
2.61184e-05
2.72396e-05
1.35542e-05
1.48266e-05
1.48743e-05
2.73062e-05
2.77115e-05
2.88698e-05
1.53521e-05
1.55629e-05
1.67759e-05
1.68578e-05
2.76689e-05
2.87182e-05
1.54605e-05
1.53738e-05
1.67675e-05
1.67079e-05
1.53415e-05
1.66144e-05
1.67103e-05
2.76015e-05
2.87771e-05
1.53047e-05
1.66687e-05
1.66879e-05
2.88422e-05
2.92124e-05
3.02704e-05
1.72542e-05
1.72869e-05
1.86865e-05
1.86572e-05
2.90377e-05
3.0144e-05
1.72137e-05
1.7157e-05
1.86077e-05
1.85719e-05
1.71983e-05
1.84485e-05
1.86699e-05
2.91253e-05
3.02154e-05
1.7182e-05
1.85515e-05
1.8644e-05
3.03204e-05
3.05988e-05
3.15869e-05
1.91727e-05
1.91358e-05
2.06605e-05
2.05795e-05
3.04931e-05
3.15462e-05
1.90973e-05
1.90642e-05
2.06019e-05
2.05306e-05
1.91718e-05
2.0524e-05
2.0722e-05
3.05441e-05
3.15262e-05
1.9138e-05
2.05235e-05
2.06835e-05
3.15032e-05
3.18708e-05
3.27194e-05
2.11307e-05
2.10205e-05
2.25195e-05
2.23364e-05
3.18383e-05
3.27197e-05
2.10621e-05
2.09785e-05
2.23695e-05
2.23366e-05
2.1184e-05
2.2383e-05
2.24345e-05
3.18162e-05
3.27431e-05
2.11589e-05
2.23892e-05
2.24584e-05
3.26958e-05
3.30369e-05
3.45192e-05
2.30558e-05
2.28685e-05
2.48985e-05
2.47434e-05
3.30467e-05
3.45411e-05
2.2884e-05
2.28843e-05
2.47131e-05
2.47885e-05
2.29235e-05
2.47533e-05
2.47134e-05
3.3077e-05
3.45675e-05
2.29567e-05
2.48154e-05
2.4757e-05
3.44899e-05
3.49157e-05
3.57731e-05
2.55023e-05
2.53679e-05
2.69039e-05
2.68067e-05
3.49357e-05
3.57821e-05
2.53298e-05
2.54134e-05
2.67617e-05
2.68557e-05
2.53312e-05
2.68153e-05
2.68021e-05
3.4958e-05
3.57938e-05
2.53734e-05
2.68641e-05
2.68376e-05
3.57833e-05
3.59119e-05
3.56222e-05
2.71808e-05
2.70976e-05
2.73506e-05
2.72885e-05
3.59207e-05
3.56231e-05
2.70571e-05
2.71394e-05
2.72575e-05
2.73122e-05
2.71143e-05
2.73066e-05
2.73342e-05
3.59302e-05
3.56248e-05
2.71438e-05
2.73304e-05
2.73542e-05
3.56633e-05
3.56259e-05
3.47531e-05
2.73224e-05
2.72634e-05
2.69034e-05
2.68611e-05
3.56265e-05
3.47441e-05
2.72337e-05
2.72833e-05
2.6841e-05
2.68625e-05
2.73118e-05
2.68659e-05
2.69014e-05
3.56278e-05
3.4744e-05
2.73308e-05
2.68821e-05
2.69137e-05
3.4775e-05
3.47489e-05
3.43755e-05
2.67783e-05
2.67389e-05
2.67107e-05
2.66781e-05
3.47394e-05
3.43614e-05
2.67219e-05
2.67391e-05
2.66679e-05
2.6679e-05
2.67719e-05
2.66732e-05
2.66965e-05
3.47394e-05
3.43667e-05
2.67823e-05
2.66876e-05
2.6702e-05
3.43754e-05
3.44988e-05
3.54966e-05
2.68889e-05
2.68652e-05
2.84731e-05
2.84596e-05
3.4485e-05
3.54888e-05
2.68618e-05
2.68685e-05
2.84531e-05
2.84651e-05
2.68693e-05
2.84517e-05
2.84625e-05
3.44909e-05
3.54966e-05
2.68692e-05
2.8462e-05
2.8459e-05
3.54948e-05
3.58283e-05
3.74114e-05
2.90727e-05
2.90619e-05
3.10957e-05
3.10913e-05
3.58219e-05
3.74083e-05
2.90553e-05
2.90674e-05
3.10854e-05
3.10961e-05
2.90652e-05
3.10856e-05
3.10946e-05
3.58293e-05
3.74144e-05
2.9061e-05
3.10926e-05
3.10896e-05
3.74122e-05
3.78531e-05
4.01206e-05
3.18812e-05
3.1878e-05
3.45097e-05
3.45088e-05
3.78505e-05
4.01187e-05
3.18728e-05
3.18825e-05
3.45048e-05
3.45119e-05
3.18813e-05
3.45054e-05
3.45121e-05
3.7856e-05
4.01225e-05
3.18767e-05
3.45097e-05
3.45088e-05
4.01225e-05
4.06447e-05
4.26674e-05
3.53937e-05
3.53931e-05
3.77201e-05
3.772e-05
4.06431e-05
4.26656e-05
3.53897e-05
3.53958e-05
3.77176e-05
3.77216e-05
3.53964e-05
3.77175e-05
3.77233e-05
4.06464e-05
4.26681e-05
3.53935e-05
3.77211e-05
3.77213e-05
4.26695e-05
4.30393e-05
4.42111e-05
3.83453e-05
3.83452e-05
3.97517e-05
3.97516e-05
4.30377e-05
4.42096e-05
3.83433e-05
3.83466e-05
3.97502e-05
3.97524e-05
3.83486e-05
3.97501e-05
3.9755e-05
4.30399e-05
4.42115e-05
3.83467e-05
3.97532e-05
3.97535e-05
4.42133e-05
4.442e-05
4.49377e-05
4.00811e-05
4.00808e-05
4.07491e-05
4.07486e-05
4.44186e-05
4.49365e-05
4.00798e-05
4.00816e-05
4.07477e-05
4.07495e-05
4.00844e-05
4.07482e-05
4.07524e-05
4.44204e-05
4.49383e-05
4.00829e-05
4.07508e-05
4.07511e-05
4.49402e-05
4.50431e-05
4.52392e-05
4.08898e-05
4.08893e-05
4.11559e-05
4.11555e-05
4.5042e-05
4.52383e-05
4.08886e-05
4.08902e-05
4.11548e-05
4.11563e-05
4.08931e-05
4.11558e-05
4.11593e-05
4.50437e-05
4.52398e-05
4.0892e-05
4.1158e-05
4.11583e-05
4.52418e-05
4.52978e-05
4.53581e-05
4.12093e-05
4.1209e-05
4.13109e-05
4.13107e-05
4.5297e-05
4.53574e-05
4.12084e-05
4.12098e-05
4.131e-05
4.13112e-05
4.12128e-05
4.13112e-05
4.13142e-05
4.52984e-05
4.53586e-05
4.12119e-05
4.13131e-05
4.13135e-05
4.53606e-05
4.53973e-05
4.54009e-05
4.13308e-05
4.13307e-05
4.13605e-05
4.13604e-05
4.53965e-05
4.54001e-05
4.133e-05
4.1331e-05
4.13596e-05
4.13606e-05
4.13341e-05
4.13607e-05
4.13638e-05
4.53976e-05
4.54011e-05
4.13335e-05
4.13626e-05
4.13631e-05
4.54032e-05
4.54322e-05
4.53948e-05
4.13625e-05
4.13623e-05
4.13577e-05
4.13575e-05
4.54315e-05
4.53939e-05
4.13616e-05
4.13626e-05
4.13568e-05
4.13579e-05
4.13658e-05
4.13578e-05
4.13611e-05
4.54324e-05
4.53953e-05
4.1365e-05
4.13599e-05
4.13603e-05
4.53974e-05
4.54198e-05
4.53872e-05
4.13556e-05
4.13554e-05
4.13582e-05
4.13581e-05
4.54189e-05
4.53864e-05
4.13547e-05
4.13558e-05
4.13573e-05
4.13584e-05
4.1359e-05
4.13585e-05
4.13616e-05
4.54202e-05
4.53875e-05
4.13582e-05
4.13605e-05
4.13608e-05
4.53896e-05
4.54222e-05
4.54117e-05
4.13626e-05
4.13625e-05
4.1366e-05
4.13658e-05
4.54215e-05
4.5411e-05
4.13616e-05
4.13627e-05
4.1365e-05
4.1366e-05
4.13659e-05
4.13662e-05
4.13692e-05
4.54225e-05
4.5412e-05
4.13651e-05
4.1368e-05
4.13684e-05
4.54141e-05
4.54402e-05
4.53869e-05
4.13655e-05
4.13652e-05
4.13592e-05
4.13589e-05
4.54395e-05
4.53858e-05
4.13645e-05
4.13654e-05
4.13581e-05
4.13592e-05
4.13685e-05
4.13593e-05
4.13625e-05
4.54404e-05
4.53869e-05
4.13677e-05
4.13612e-05
4.13616e-05
4.53889e-05
4.54133e-05
4.54045e-05
4.13587e-05
4.13585e-05
4.13638e-05
4.13637e-05
4.54123e-05
4.54042e-05
4.13577e-05
4.13588e-05
4.13628e-05
4.13639e-05
4.13621e-05
4.13639e-05
4.1367e-05
4.54133e-05
4.54055e-05
4.13613e-05
4.1366e-05
4.13664e-05
4.54077e-05
4.54357e-05
4.53914e-05
4.13643e-05
4.13641e-05
4.13605e-05
4.13602e-05
4.54354e-05
4.53897e-05
4.13633e-05
4.13644e-05
4.13594e-05
4.13604e-05
4.13675e-05
4.13606e-05
4.13637e-05
4.54366e-05
4.53908e-05
4.13667e-05
4.13625e-05
4.13627e-05
4.53928e-05
4.5417e-05
4.54041e-05
4.13603e-05
4.13601e-05
4.13626e-05
4.13624e-05
4.54156e-05
4.54042e-05
4.13591e-05
4.13602e-05
4.13616e-05
4.13627e-05
4.13636e-05
4.13627e-05
4.13658e-05
4.54166e-05
4.54053e-05
4.13626e-05
4.13646e-05
4.1365e-05
4.54073e-05
4.54352e-05
4.53886e-05
4.13624e-05
4.13621e-05
4.13616e-05
4.13614e-05
4.5435e-05
4.53871e-05
4.13615e-05
4.13624e-05
4.13604e-05
4.13614e-05
4.13655e-05
4.13617e-05
4.13648e-05
4.5436e-05
4.53883e-05
4.13648e-05
4.13638e-05
4.13641e-05
4.53905e-05
4.54155e-05
4.54071e-05
4.13617e-05
4.13618e-05
4.13617e-05
4.13614e-05
4.54149e-05
4.54059e-05
4.13604e-05
4.13615e-05
4.13607e-05
4.13616e-05
4.1365e-05
4.13618e-05
4.13649e-05
4.54159e-05
4.54068e-05
4.13641e-05
4.13636e-05
4.1364e-05
4.54091e-05
4.54345e-05
4.53922e-05
4.13616e-05
4.13612e-05
4.13621e-05
4.13621e-05
4.5432e-05
4.53943e-05
4.13607e-05
4.13616e-05
4.13606e-05
4.13619e-05
4.13648e-05
4.13622e-05
4.13653e-05
4.54327e-05
4.53962e-05
4.1364e-05
4.13644e-05
4.13647e-05
4.53974e-05
4.54269e-05
4.5392e-05
4.13621e-05
4.1362e-05
4.13616e-05
4.13613e-05
4.54285e-05
4.53898e-05
4.13606e-05
4.13618e-05
4.13606e-05
4.13616e-05
4.13652e-05
4.13618e-05
4.13649e-05
4.54301e-05
4.53904e-05
4.13644e-05
4.13637e-05
4.1364e-05
4.53929e-05
4.5418e-05
4.54046e-05
4.13619e-05
4.13617e-05
4.13616e-05
4.13613e-05
4.54167e-05
4.54016e-05
4.13606e-05
4.1362e-05
4.13604e-05
4.13613e-05
4.13653e-05
4.13616e-05
4.13647e-05
4.54178e-05
4.54006e-05
4.13645e-05
4.13635e-05
4.13638e-05
4.54036e-05
4.54296e-05
4.5402e-05
4.13613e-05
4.13612e-05
4.13622e-05
4.1362e-05
4.54257e-05
4.54034e-05
4.13603e-05
4.13613e-05
4.13609e-05
4.13621e-05
4.13647e-05
4.13624e-05
4.13655e-05
4.54248e-05
4.54051e-05
4.13637e-05
4.13644e-05
4.13647e-05
4.54071e-05
4.54334e-05
4.539e-05
4.1362e-05
4.13615e-05
4.13616e-05
4.13619e-05
4.54327e-05
4.53971e-05
4.13607e-05
4.13615e-05
4.13603e-05
4.13619e-05
4.13647e-05
4.13627e-05
4.13657e-05
4.54333e-05
4.53994e-05
4.13639e-05
4.13645e-05
4.13647e-05
4.53987e-05
4.54238e-05
4.53917e-05
4.13619e-05
4.13619e-05
4.13617e-05
4.13615e-05
4.54306e-05
4.53887e-05
4.13605e-05
4.13619e-05
4.13605e-05
4.13618e-05
4.1366e-05
4.13612e-05
4.1364e-05
4.54321e-05
4.53904e-05
4.1365e-05
4.13632e-05
4.13632e-05
4.53915e-05
4.5418e-05
4.54012e-05
4.13617e-05
4.13619e-05
4.13617e-05
4.13614e-05
4.54212e-05
4.53916e-05
4.13604e-05
4.13619e-05
4.13605e-05
4.13616e-05
4.13645e-05
4.13623e-05
4.13655e-05
4.54236e-05
4.5392e-05
4.13636e-05
4.13641e-05
4.13645e-05
4.53982e-05
4.54253e-05
4.54045e-05
4.13617e-05
4.13616e-05
4.13619e-05
4.13616e-05
4.54177e-05
4.54026e-05
4.13606e-05
4.13619e-05
4.13605e-05
4.13615e-05
4.1365e-05
4.1362e-05
4.13648e-05
4.54187e-05
4.53992e-05
4.13641e-05
4.13639e-05
4.13641e-05
4.54042e-05
4.54327e-05
4.54008e-05
4.13618e-05
4.13615e-05
4.13622e-05
4.13618e-05
4.5427e-05
4.54017e-05
4.13605e-05
4.13615e-05
4.13609e-05
4.13617e-05
4.13648e-05
4.13619e-05
4.13653e-05
4.54238e-05
4.53998e-05
4.1364e-05
4.13636e-05
4.13646e-05
4.54057e-05
4.54328e-05
4.53895e-05
4.13619e-05
4.13617e-05
4.13617e-05
4.13619e-05
4.54311e-05
4.54017e-05
4.13606e-05
4.13616e-05
4.13606e-05
4.13619e-05
4.13657e-05
4.13624e-05
4.13648e-05
4.54244e-05
4.54e-05
4.1365e-05
4.13637e-05
4.13635e-05
4.53908e-05
4.5423e-05
4.53968e-05
4.13624e-05
4.13615e-05
4.13624e-05
4.13624e-05
4.54302e-05
4.54024e-05
4.13611e-05
4.13614e-05
4.13609e-05
4.13622e-05
4.13647e-05
4.13629e-05
4.13657e-05
4.54238e-05
4.54058e-05
4.13636e-05
4.13646e-05
4.13649e-05
4.54085e-05
4.54232e-05
4.5389e-05
4.13621e-05
4.13623e-05
4.13615e-05
4.13613e-05
4.54339e-05
4.53871e-05
4.13609e-05
4.13622e-05
4.13602e-05
4.13613e-05
4.13656e-05
4.13617e-05
4.13651e-05
4.5435e-05
4.53926e-05
4.13643e-05
4.13635e-05
4.13645e-05
4.54009e-05
4.54192e-05
4.53983e-05
4.13626e-05
4.13622e-05
4.13616e-05
4.13614e-05
4.54185e-05
4.53981e-05
4.13612e-05
4.1362e-05
4.13604e-05
4.13615e-05
4.13657e-05
4.13619e-05
4.13648e-05
4.54266e-05
4.53947e-05
4.13651e-05
4.13634e-05
4.13634e-05
4.53909e-05
4.54226e-05
4.54035e-05
4.13614e-05
4.13614e-05
4.13616e-05
4.13616e-05
4.54225e-05
4.54039e-05
4.13602e-05
4.13615e-05
4.13608e-05
4.13617e-05
4.1365e-05
4.13628e-05
4.13654e-05
4.54236e-05
4.53946e-05
4.1364e-05
4.13639e-05
4.13645e-05
4.54025e-05
4.54345e-05
4.53885e-05
4.13617e-05
4.13616e-05
4.13613e-05
4.13612e-05
4.54345e-05
4.53878e-05
4.13609e-05
4.13619e-05
4.13601e-05
4.13615e-05
4.13651e-05
4.13618e-05
4.13655e-05
4.543e-05
4.53899e-05
4.1364e-05
4.13634e-05
4.13643e-05
4.54071e-05
4.54209e-05
4.53941e-05
4.13615e-05
4.13615e-05
4.13615e-05
4.13614e-05
4.54212e-05
4.53941e-05
4.13604e-05
4.13617e-05
4.13601e-05
4.13618e-05
4.13657e-05
4.13616e-05
4.1365e-05
4.54173e-05
4.54021e-05
4.13645e-05
4.13637e-05
4.13639e-05
4.53957e-05
4.54196e-05
4.54038e-05
4.13617e-05
4.13616e-05
4.13614e-05
4.13615e-05
4.54195e-05
4.54039e-05
4.13602e-05
4.13618e-05
4.13602e-05
4.13615e-05
4.13655e-05
4.13618e-05
4.13646e-05
4.54262e-05
4.54042e-05
4.13642e-05
4.13634e-05
4.13638e-05
4.53926e-05
4.54291e-05
4.54032e-05
4.13619e-05
4.1362e-05
4.13614e-05
4.13615e-05
4.54306e-05
4.54018e-05
4.13605e-05
4.13618e-05
4.136e-05
4.13612e-05
4.1365e-05
4.13617e-05
4.13646e-05
4.5433e-05
4.53999e-05
4.13644e-05
4.13631e-05
4.13635e-05
4.53989e-05
4.54328e-05
4.53974e-05
4.13615e-05
4.13617e-05
4.13614e-05
4.13618e-05
4.54319e-05
4.53975e-05
4.13605e-05
4.13618e-05
4.136e-05
4.1361e-05
4.13648e-05
4.13616e-05
4.13646e-05
4.54323e-05
4.53907e-05
4.13639e-05
4.13632e-05
4.13637e-05
4.54064e-05
4.54306e-05
4.53913e-05
4.13619e-05
4.13624e-05
4.13608e-05
4.13609e-05
4.54313e-05
4.53873e-05
4.13605e-05
4.13616e-05
4.13599e-05
4.13609e-05
4.13649e-05
4.13609e-05
4.13643e-05
4.54252e-05
4.53911e-05
4.13638e-05
4.13629e-05
4.13634e-05
4.54044e-05
4.54249e-05
4.53897e-05
4.13617e-05
4.13618e-05
4.13607e-05
4.1361e-05
4.54162e-05
4.54001e-05
4.13606e-05
4.13615e-05
4.13596e-05
4.13609e-05
4.1365e-05
4.13609e-05
4.1364e-05
4.54176e-05
4.54028e-05
4.13641e-05
4.13625e-05
4.13626e-05
4.53965e-05
4.542e-05
4.53919e-05
4.13616e-05
4.13615e-05
4.13606e-05
4.13609e-05
4.54243e-05
4.54024e-05
4.13607e-05
4.13616e-05
4.13591e-05
4.13607e-05
4.13651e-05
4.13608e-05
4.13637e-05
4.54269e-05
4.54036e-05
4.13637e-05
4.13628e-05
4.13626e-05
4.53922e-05
4.54178e-05
4.54051e-05
4.13617e-05
4.13619e-05
4.13605e-05
4.13602e-05
4.54331e-05
4.53904e-05
4.13604e-05
4.13619e-05
4.13594e-05
4.13603e-05
4.13651e-05
4.13602e-05
4.13634e-05
4.54339e-05
4.53924e-05
4.13637e-05
4.13621e-05
4.13624e-05
4.53927e-05
4.54308e-05
4.53985e-05
4.13619e-05
4.1362e-05
4.13602e-05
4.13597e-05
4.54252e-05
4.53888e-05
4.13607e-05
4.13621e-05
4.13591e-05
4.13599e-05
4.1365e-05
4.136e-05
4.13633e-05
4.54271e-05
4.53901e-05
4.1364e-05
4.13617e-05
4.1362e-05
4.53939e-05
4.54315e-05
4.53886e-05
4.13622e-05
4.13617e-05
4.13599e-05
4.13597e-05
4.54166e-05
4.53957e-05
4.13612e-05
4.1362e-05
4.13589e-05
4.136e-05
4.13651e-05
4.13599e-05
4.13631e-05
4.5418e-05
4.53961e-05
4.13641e-05
4.13616e-05
4.13617e-05
4.53974e-05
4.54192e-05
4.53933e-05
4.13623e-05
4.13619e-05
4.13597e-05
4.13596e-05
4.54208e-05
4.5402e-05
4.13612e-05
4.13622e-05
4.13586e-05
4.13598e-05
4.13655e-05
4.13597e-05
4.13627e-05
4.54213e-05
4.54016e-05
4.13642e-05
4.13615e-05
4.13616e-05
4.5403e-05
4.54197e-05
4.53985e-05
4.13629e-05
4.13626e-05
4.13593e-05
4.13591e-05
4.5428e-05
4.54008e-05
4.13619e-05
4.1363e-05
4.13581e-05
4.13592e-05
4.13659e-05
4.13593e-05
4.13624e-05
4.54266e-05
4.5402e-05
4.13645e-05
4.13611e-05
4.13614e-05
4.54047e-05
4.54236e-05
4.54036e-05
4.13635e-05
4.13633e-05
4.13593e-05
4.1359e-05
4.54293e-05
4.5401e-05
4.13621e-05
4.13632e-05
4.13584e-05
4.13594e-05
4.13665e-05
4.13593e-05
4.13624e-05
4.54282e-05
4.54027e-05
4.13654e-05
4.13608e-05
4.13611e-05
4.54029e-05
4.54299e-05
4.54014e-05
4.13646e-05
4.13643e-05
4.13596e-05
4.13594e-05
4.54289e-05
4.54017e-05
4.13635e-05
4.13646e-05
4.13585e-05
4.13596e-05
4.13677e-05
4.13596e-05
4.13626e-05
4.54292e-05
4.54033e-05
4.13665e-05
4.13612e-05
4.13613e-05
4.5403e-05
4.5433e-05
4.53873e-05
4.13667e-05
4.13663e-05
4.13519e-05
4.13519e-05
4.54305e-05
4.5395e-05
4.13656e-05
4.13666e-05
4.13506e-05
4.13519e-05
4.13695e-05
4.13521e-05
4.13551e-05
4.5432e-05
4.53951e-05
4.13682e-05
4.13537e-05
4.13538e-05
4.54006e-05
4.54162e-05
4.50894e-05
4.13574e-05
4.13572e-05
4.10519e-05
4.10522e-05
4.54237e-05
4.50914e-05
4.1356e-05
4.13573e-05
4.10526e-05
4.10507e-05
4.13603e-05
4.10549e-05
4.10547e-05
4.54247e-05
4.50911e-05
4.1359e-05
4.10547e-05
4.10552e-05
4.50951e-05
4.47791e-05
4.0045e-05
4.00451e-05
4.47812e-05
4.0046e-05
4.00437e-05
2.60828e-05
2.60818e-05
2.60841e-05
4.00475e-05
4.47822e-05
4.00485e-05
3.98306e-06
5.22612e-07
2.60598e-06
2.60413e-06
1.06768e-07
3.38384e-07
4.5795e-07
1.48043e-06
9.5303e-08
3.65601e-07
1.499e-06
2.65768e-07
3.64245e-07
3.88607e-07
2.65228e-07
2.95512e-07
4.98247e-06
2.56128e-07
6.67284e-06
1.38786e-05
2.17586e-05
3.02122e-07
4.98338e-06
2.6293e-07
6.64655e-06
1.43529e-06
1.44294e-06
1.43033e-06
1.40959e-06
1.42014e-06
1.42759e-06
1.4151e-06
1.03243e-07
7.14722e-07
6.4657e-07
3.61386e-07
1.04886e-07
6.80929e-07
6.39713e-07
1.4076e-05
2.17277e-05
9.37991e-08
7.7282e-07
7.09571e-07
4.60943e-07
9.23193e-08
7.67971e-07
6.99144e-07
1.91007e-06
1.89051e-06
3.53599e-07
1.88812e-06
1.86615e-06
4.85739e-07
9.91215e-06
4.0029e-07
1.24469e-05
3.69012e-05
4.68644e-05
4.89252e-07
9.96607e-06
4.13123e-07
1.24295e-05
1.42668e-06
1.43388e-06
1.42143e-06
1.43725e-06