/*--------------------------------*- C++ -*----------------------------------*\
| =========                 |                                                 |
| \\      /  F ield         | OpenFOAM: The Open Source CFD Toolbox           |
|  \\    /   O peration     | Version:  v1906                                 |
|   \\  /    A nd           | Web:      www.OpenFOAM.com                      |
|    \\/     M anipulation  |                                                 |
\*---------------------------------------------------------------------------*/
FoamFile
{
    version     2.0;
    format      ascii;
    class       volScalarField;
    location    "200";
    object      nut;
}
// * * * * * * * * * * * * * * * * * * * * * * * * * * * * * * * * * * * * * //

dimensions      [0 2 -1 0 0 0 0];


internalField   nonuniform List<scalar> 
171728
(
1.66648e-05
2.48589e-06
2.40925e-06
2.29453e-06
1.65877e-05
2.48653e-06
2.79484e-06
2.3613e-06
1.7014e-05
2.55026e-06
4.05315e-06
2.41266e-06
1.7449e-05
2.62258e-06
5.78938e-06
2.4467e-06
1.78685e-05
2.68125e-06
6.15299e-06
2.47659e-06
1.82968e-05
2.75382e-06
4.48978e-06
2.50457e-06
1.87357e-05
2.82953e-06
3.29363e-06
2.51493e-06
1.91621e-05
2.87444e-06
2.91023e-06
2.45747e-06
1.95697e-05
2.92376e-06
2.98049e-06
2.34178e-06
1.99592e-05
2.9895e-06
3.01917e-06
2.263e-06
2.04089e-05
3.07429e-06
3.05753e-06
2.17426e-06
2.08933e-05
3.1215e-06
3.11376e-06
2.10103e-06
2.13717e-05
3.16202e-06
3.17835e-06
2.05688e-06
2.18477e-05
3.20482e-06
3.25095e-06
2.01127e-06
2.23056e-05
3.25731e-06
3.30309e-06
1.95175e-06
2.27843e-05
3.30241e-06
3.36978e-06
1.89041e-06
2.3236e-05
3.33561e-06
3.43755e-06
1.78089e-06
2.36306e-05
3.40429e-06
3.50682e-06
1.67249e-06
2.40763e-05
3.42242e-06
3.53825e-06
1.69145e-06
2.43514e-05
3.50794e-06
3.63473e-06
1.81066e-06
2.4728e-05
3.82922e-06
3.87591e-06
2.59138e-06
2.49937e-05
4.03232e-06
4.15048e-06
2.80126e-06
2.52262e-05
4.5127e-06
4.67677e-06
4.36329e-06
2.54256e-05
5.43025e-06
5.51094e-06
6.26198e-06
2.55873e-05
6.38754e-06
6.7038e-06
9.73178e-06
2.57459e-05
7.96225e-06
8.21731e-06
1.3828e-05
2.57279e-05
9.78701e-06
1.00198e-05
1.93568e-05
2.57961e-05
1.18946e-05
1.22056e-05
2.60726e-05
2.57569e-05
1.49793e-05
1.48422e-05
3.32606e-05
2.57285e-05
1.79016e-05
1.82126e-05
4.03826e-05
2.56916e-05
2.19367e-05
2.17474e-05
4.77813e-05
2.56629e-05
2.65117e-05
2.61703e-05
5.45332e-05
2.59459e-05
3.18982e-05
3.04814e-05
6.1034e-05
2.6278e-05
3.67487e-05
3.56451e-05
6.72209e-05
2.70266e-05
4.26225e-05
4.09752e-05
7.26039e-05
2.76777e-05
4.75436e-05
4.69295e-05
7.77487e-05
2.88219e-05
5.3107e-05
5.27424e-05
8.25252e-05
3.02715e-05
5.89013e-05
5.92303e-05
8.79891e-05
3.24155e-05
6.56583e-05
6.61389e-05
9.33298e-05
3.54569e-05
7.37314e-05
7.3541e-05
9.75474e-05
3.8324e-05
8.07655e-05
8.08241e-05
0.000101742
4.4356e-05
9.23785e-05
9.27512e-05
0.00011046
5.05148e-05
0.000101739
0.000101986
0.000116716
5.11325e-05
0.000101235
0.000101362
0.000116324
4.57678e-05
9.48219e-05
9.49032e-05
0.000111206
4.05571e-05
9.07055e-05
9.07631e-05
0.000107577
4.62884e-05
9.91822e-05
9.92276e-05
0.000111843
5.95443e-05
0.000111882
0.000111907
0.000119499
8.50279e-05
0.000130877
0.000130888
0.000131993
0.000117
0.000149019
0.000149026
0.000143996
0.000142506
0.000160543
0.000160547
0.000151269
0.000157152
0.00016615
0.000166151
0.000154618
0.000163709
0.000168407
0.000168405
0.000155992
0.000166264
0.00016928
0.000169277
0.000156536
0.000167051
0.000169525
0.000169521
0.000156744
0.000167118
0.000169477
0.000169475
0.000156697
0.000167185
0.000169518
0.000169515
0.000156674
0.000167213
0.000169549
0.000169545
0.000156807
0.000167179
0.000169496
0.000169493
0.000156632
0.000167197
0.000169536
0.000169534
0.000156777
0.000167186
0.000169508
0.000169505
0.000156656
0.000167187
0.000169523
0.00016952
0.000156775
0.000167186
0.000169519
0.000169515
0.000156642
0.000167186
0.000169517
0.000169513
0.000156767
0.000167187
0.00016952
0.000169518
0.000156728
0.000167187
0.000169521
0.000169518
0.000156656
0.000167186
0.000169516
0.000169512
0.000156714
0.000167186
0.000169518
0.000169514
0.000156768
0.000167187
0.000169526
0.000169522
0.000156737
0.000167187
0.000169518
0.000169514
0.000156657
0.00016719
0.000169519
0.000169516
0.000156681
0.000167189
0.00016952
0.000169517
0.000156718
0.000167188
0.00016952
0.000169516
0.000156767
0.000167193
0.000169518
0.000169513
0.000156646
0.000167192
0.000169527
0.00016952
0.000156761
0.000167192
0.000169524
0.00016952
0.000156745
0.00016719
0.000169519
0.000169515
0.000156647
0.00016719
0.000169526
0.000169519
0.000156705
0.000167189
0.000169522
0.000169516
0.000156772
0.000167189
0.00016952
0.000169516
0.000156723
0.00016719
0.000169521
0.000169517
0.000156667
0.000167189
0.000169521
0.000169516
0.000156696
0.000167189
0.000169523
0.000169516
0.000156755
0.000167189
0.00016952
0.000169516
0.000156766
0.000167189
0.000169518
0.000169512
0.000156728
0.000167188
0.000169521
0.000169516
0.000156681
0.000167188
0.000169519
0.000169516
0.000156663
0.000167189
0.000169518
0.000169514
0.000156662
0.000167189
0.000169519
0.000169514
0.00015668
0.000167189
0.000169521
0.000169516
0.000156716
0.000167189
0.000169522
0.000169519
0.000156745
0.000167189
0.000169526
0.000169522
0.00015674
0.00016719
0.000169535
0.000169529
0.00015673
0.000167291
0.000169515
0.00016951
0.000156741
0.000167709
0.000169424
0.000169421
0.000158388
2.30476e-06
2.44696e-06
2.49831e-06
2.1603e-06
2.23616e-06
2.5024e-06
1.72194e-05
1.73312e-05
1.74883e-05
1.73496e-05
2.39555e-06
2.65125e-06
2.24121e-06
2.6235e-06
2.43553e-06
2.30536e-06
2.28507e-06
2.27108e-06
2.54902e-06
2.57176e-06
2.559e-06
2.59516e-06
2.14122e-06
2.16984e-06
2.36264e-06
2.55797e-06
2.28725e-06
2.56281e-06
2.65164e-06
2.48032e-06
2.69275e-06
2.23268e-06
2.24988e-06
2.52392e-06
2.64174e-06
2.54484e-06
2.35953e-06
2.24787e-06
2.23775e-06
2.56568e-06
2.6011e-06
2.59572e-06
2.61925e-06
2.15618e-06
2.21843e-06
2.2848e-06
2.56777e-06
2.30619e-06
2.58808e-06
2.715e-06
2.52923e-06
2.7808e-06
2.25759e-06
2.36775e-06
2.55719e-06
3.64583e-06
2.58207e-06
2.41173e-06
2.22949e-06
2.2722e-06
2.60863e-06
2.62905e-06
2.65748e-06
2.66262e-06
2.20849e-06
2.26881e-06
2.32008e-06
2.59855e-06
2.38555e-06
2.63574e-06
2.79395e-06
2.60394e-06
2.81299e-06
2.37932e-06
2.49436e-06
2.59181e-06
5.39773e-06
2.63484e-06
2.44568e-06
2.27253e-06
2.32063e-06
2.67407e-06
2.67318e-06
2.71942e-06
2.70501e-06
2.26223e-06
2.30092e-06
2.41255e-06
2.64978e-06
2.46866e-06
2.68952e-06
2.82677e-06
2.66821e-06
2.92622e-06
2.49025e-06
2.48867e-06
2.64424e-06
6.43346e-06
2.67086e-06
2.48153e-06
2.31165e-06
2.32612e-06
2.7318e-06
2.71763e-06
2.76918e-06
2.75278e-06
2.28698e-06
2.31439e-06
2.47839e-06
2.70317e-06
2.48321e-06
2.7487e-06
2.97731e-06
2.73221e-06
3.19115e-06
2.4388e-06
2.3729e-06
2.68778e-06
4.91178e-06
2.74988e-06
2.52e-06
2.30455e-06
2.30131e-06
2.78128e-06
2.76141e-06
2.82941e-06
2.8165e-06
2.2992e-06
2.35017e-06
2.48495e-06
2.76063e-06
2.49559e-06
2.80627e-06
3.27245e-06
2.81799e-06
3.52642e-06
2.34223e-06
2.32849e-06
2.76948e-06
3.50476e-06
2.8406e-06
2.5416e-06
2.27805e-06
2.28034e-06
2.84859e-06
2.83678e-06
2.90615e-06
2.90821e-06
2.33782e-06
2.39094e-06
2.50804e-06
2.81988e-06
2.54627e-06
2.86399e-06
3.59339e-06
2.86414e-06
3.73529e-06
2.3121e-06
2.36628e-06
2.86267e-06
2.93695e-06
2.91923e-06
2.4948e-06
2.25752e-06
2.25548e-06
2.92672e-06
2.9398e-06
2.9802e-06
3.01732e-06
2.37718e-06
2.41235e-06
2.56007e-06
2.87616e-06
2.60463e-06
2.91831e-06
3.7564e-06
2.91378e-06
3.6996e-06
2.35203e-06
2.34405e-06
2.93844e-06
2.95767e-06
2.98414e-06
2.3814e-06
2.23388e-06
2.21162e-06
2.99445e-06
3.03726e-06
3.04813e-06
3.10696e-06
2.3954e-06
2.40502e-06
2.61825e-06
2.93341e-06
2.63836e-06
2.97874e-06
3.63371e-06
2.97926e-06
3.31666e-06
2.31952e-06
2.31106e-06
2.99544e-06
3.0166e-06
3.05298e-06
2.29231e-06
2.18628e-06
2.1372e-06
3.06107e-06
3.12553e-06
3.10142e-06
3.18983e-06
2.38824e-06
2.38601e-06
2.64353e-06
2.99444e-06
2.65421e-06
3.04286e-06
3.21153e-06
3.06243e-06
2.99889e-06
2.29324e-06
2.28679e-06
3.06981e-06
3.04385e-06
3.09744e-06
2.20516e-06
2.1118e-06
2.07711e-06
3.11654e-06
3.19696e-06
3.16815e-06
3.2144e-06
2.36478e-06
2.33228e-06
2.66076e-06
3.05726e-06
2.71592e-06
3.11497e-06
2.95827e-06
3.10665e-06
2.86885e-06
2.26819e-06
2.25104e-06
3.10885e-06
3.10591e-06
3.14613e-06
2.12463e-06
2.05514e-06
2.02657e-06
3.19026e-06
3.22073e-06
3.22844e-06
3.26846e-06
2.30736e-06
2.27263e-06
2.74094e-06
3.12641e-06
2.79984e-06
3.17793e-06
2.84214e-06
3.15363e-06
2.87903e-06
2.2303e-06
2.20226e-06
3.15675e-06
3.15989e-06
3.21616e-06
2.0792e-06
2.00306e-06
1.96166e-06
3.24361e-06
3.2953e-06
3.27802e-06
3.3336e-06
2.24845e-06
2.20609e-06
2.81737e-06
3.205e-06
2.85724e-06
3.25477e-06
2.9129e-06
3.19171e-06
2.98722e-06
2.17897e-06
2.14464e-06
3.2428e-06
3.23336e-06
3.29739e-06
2.03665e-06
1.93651e-06
1.89065e-06
3.28711e-06
3.35107e-06
3.30511e-06
3.40082e-06
2.18066e-06
2.14233e-06
2.87281e-06
3.2744e-06
2.91337e-06
3.31558e-06
3.01058e-06
3.2494e-06
3.07469e-06
2.11942e-06
2.07564e-06
3.31103e-06
3.29286e-06
3.34881e-06
1.98075e-06
1.85525e-06
1.82496e-06
3.30904e-06
3.40629e-06
3.35607e-06
3.46678e-06
2.10792e-06
2.06716e-06
2.92703e-06
3.33136e-06
2.99453e-06
3.40874e-06
3.08302e-06
3.30427e-06
3.14708e-06
2.045e-06
2.01907e-06
3.35494e-06
3.35502e-06
3.39433e-06
1.92845e-06
1.79223e-06
1.74515e-06
3.37339e-06
3.4746e-06
3.41837e-06
3.52536e-06
2.02662e-06
1.97585e-06
3.005e-06
3.42354e-06
3.06329e-06
3.43985e-06
3.1597e-06
3.32689e-06
3.174e-06
1.97816e-06
1.91568e-06
3.40707e-06
3.41935e-06
3.43306e-06
1.80099e-06
1.72186e-06
1.69451e-06
3.42826e-06
3.54578e-06
3.47089e-06
3.53229e-06
1.95844e-06
1.82589e-06
3.09235e-06
3.44504e-06
3.16129e-06
3.45641e-06
3.1999e-06
3.36086e-06
3.22664e-06
1.88335e-06
1.83689e-06
3.4576e-06
3.48272e-06
3.46947e-06
1.70918e-06
1.66333e-06
1.7045e-06
3.47194e-06
3.56198e-06
3.52062e-06
3.5282e-06
1.83284e-06
1.83666e-06
3.16633e-06
3.47944e-06
3.26055e-06
3.48493e-06
3.24554e-06
3.40483e-06
3.23586e-06
1.82258e-06
1.78099e-06
3.48799e-06
3.50665e-06
3.50708e-06
1.69045e-06
1.77482e-06
1.69712e-06
3.60124e-06
3.52111e-06
3.49449e-06
3.49599e-06
1.77873e-06
1.90861e-06
3.35952e-06
3.52569e-06
3.25748e-06
3.6624e-06
3.28341e-06
3.50107e-06
3.37965e-06
1.7744e-06
2.032e-06
3.556e-06
3.66459e-06
3.63453e-06
1.88612e-06
1.59462e-06
2.6172e-06
3.47914e-06
3.47626e-06
3.84044e-06
3.71872e-06
1.90545e-06
2.47029e-06
3.25551e-06
3.63119e-06
3.65308e-06
3.75341e-06
3.29643e-06
3.76894e-06
3.51123e-06
1.98513e-06
2.1877e-06
3.56767e-06
3.74827e-06
3.78515e-06
2.20799e-06
2.75805e-06
2.61703e-06
3.8638e-06
3.77428e-06
3.95227e-06
3.83137e-06
2.66229e-06
2.70923e-06
3.66573e-06
3.89501e-06
3.79552e-06
4.1623e-06
3.68995e-06
3.93466e-06
3.75974e-06
2.45681e-06
3.25438e-06
3.94016e-06
4.12064e-06
3.98945e-06
2.89851e-06
2.82044e-06
3.90418e-06
4.06493e-06
3.93715e-06
4.3698e-06
4.30412e-06
2.83706e-06
4.00907e-06
3.93215e-06
4.20116e-06
4.24509e-06
4.51906e-06
3.79241e-06
4.36818e-06
4.27829e-06
3.22858e-06
3.85831e-06
4.03918e-06
4.47585e-06
4.49734e-06
4.00684e-06
4.10059e-06
6.09668e-06
4.52411e-06
4.4439e-06
5.18693e-06
5.10585e-06
4.2533e-06
6.10848e-06
4.39396e-06
4.72662e-06
5.12039e-06
5.36702e-06
4.41826e-06
5.16546e-06
4.92805e-06
4.20964e-06
6.30394e-06
4.63347e-06
5.28544e-06
5.18314e-06
5.71617e-06
6.66999e-06
8.84198e-06
5.42696e-06
5.38607e-06
6.21282e-06
6.07247e-06
6.67782e-06
9.01427e-06
5.39571e-06
5.59579e-06
6.11134e-06
6.45039e-06
5.24638e-06
6.10415e-06
6.10738e-06
6.77501e-06
9.25078e-06
5.47413e-06
6.40934e-06
6.32569e-06
9.21451e-06
9.42335e-06
1.30327e-05
6.49782e-06
6.37864e-06
7.54974e-06
7.54017e-06
9.50392e-06
1.32165e-05
6.37032e-06
6.73375e-06
7.5649e-06
7.78267e-06
6.3449e-06
7.55685e-06
7.48373e-06
9.95412e-06
1.31132e-05
6.57623e-06
7.76095e-06
7.66215e-06
1.27821e-05
1.3999e-05
1.84658e-05
8.01571e-06
7.90442e-06
9.33149e-06
9.21201e-06
1.42009e-05
1.81555e-05
8.04867e-06
8.21977e-06
9.16647e-06
9.49587e-06
7.92001e-06
9.27421e-06
9.19946e-06
1.40063e-05
1.8873e-05
8.11512e-06
9.56569e-06
9.4212e-06
1.83787e-05
1.93695e-05
2.44618e-05
9.76218e-06
9.78443e-06
1.14815e-05
1.13663e-05
1.9247e-05
2.46385e-05
9.57731e-06
9.99361e-06
1.15291e-05
1.1745e-05
9.74612e-06
1.13319e-05
1.14583e-05
1.99028e-05
2.49997e-05
9.91868e-06
1.15914e-05
1.15646e-05
2.47853e-05
2.59943e-05
3.21878e-05
1.21464e-05
1.19031e-05
1.41845e-05
1.42543e-05
2.577e-05
3.17147e-05
1.22429e-05
1.23817e-05
1.40291e-05
1.43053e-05
1.20324e-05
1.42011e-05
1.41248e-05
2.6361e-05
3.22031e-05
1.21595e-05
1.41466e-05
1.42448e-05
3.18078e-05
3.33774e-05
3.87323e-05
1.48595e-05
1.50219e-05
1.70497e-05
1.70716e-05
3.33383e-05
3.88515e-05
1.46714e-05
1.49553e-05
1.71239e-05
1.74942e-05
1.4885e-05
1.70833e-05
1.71886e-05
3.3493e-05
3.93806e-05
1.49682e-05
1.7371e-05
1.71912e-05
3.90423e-05
4.02254e-05
4.65992e-05
1.79883e-05
1.80237e-05
2.0929e-05
2.1208e-05
4.00943e-05
4.67507e-05
1.80371e-05
1.84408e-05
2.08223e-05
2.08733e-05
1.80379e-05
2.08464e-05
2.08431e-05
4.0852e-05
4.62198e-05
1.80375e-05
2.0679e-05
2.08375e-05
4.632e-05
4.79445e-05
5.29926e-05
2.17558e-05
2.21262e-05
2.47238e-05
2.49582e-05
4.83255e-05
5.31757e-05
2.17361e-05
2.17916e-05
2.45454e-05
2.52873e-05
2.18368e-05
2.53272e-05
2.4894e-05
4.7584e-05
5.37158e-05
2.18292e-05
2.52289e-05
2.49001e-05
5.32158e-05
5.45306e-05
6.05023e-05
2.59869e-05
2.60404e-05
2.97568e-05
2.95254e-05
5.44881e-05
6.02703e-05
2.5618e-05
2.6398e-05
2.95479e-05
2.95125e-05
2.59086e-05
3.05534e-05
2.93028e-05
5.51047e-05
5.94021e-05
2.59179e-05
2.91863e-05
2.92709e-05
5.966e-05
6.1733e-05
6.57995e-05
3.09193e-05
3.06348e-05
3.44537e-05
3.37654e-05
6.1586e-05
6.5418e-05
3.09733e-05
3.06838e-05
3.50001e-05
3.43618e-05
3.06534e-05
3.54932e-05
3.4617e-05
6.06792e-05
6.59894e-05
3.05571e-05
3.44542e-05
3.43021e-05
6.6016e-05
6.7023e-05
7.17188e-05
3.57564e-05
3.5002e-05
3.97788e-05
3.98664e-05
6.65959e-05
7.22297e-05
3.63969e-05
3.5553e-05
4.10057e-05
3.95619e-05
3.58065e-05
4.11579e-05
3.98928e-05
6.7195e-05
7.11329e-05
3.55041e-05
3.9471e-05
3.97434e-05
7.14252e-05
7.28128e-05
7.62687e-05
4.09917e-05
4.15312e-05
4.48466e-05
4.56826e-05
7.35843e-05
7.67743e-05
4.24532e-05
4.11248e-05
4.65318e-05
4.58528e-05
4.13099e-05
4.6382e-05
4.52583e-05
7.23332e-05
7.69028e-05
4.11827e-05
4.55736e-05
4.52364e-05
7.66471e-05
7.73563e-05
8.16818e-05
4.63632e-05
4.71081e-05
5.12202e-05
5.24838e-05
7.7644e-05
8.17435e-05
4.79254e-05
4.72806e-05
5.22168e-05
5.16786e-05
4.67127e-05
5.1603e-05
5.13881e-05
7.79876e-05
8.13621e-05
4.6727e-05
5.11327e-05
5.12747e-05
8.15524e-05
8.28296e-05
8.6867e-05
5.28653e-05
5.42999e-05
5.79377e-05
5.87774e-05
8.2929e-05
8.63451e-05
5.3683e-05
5.32598e-05
5.81413e-05
5.7864e-05
5.28663e-05
5.74474e-05
5.75821e-05
8.2413e-05
8.6453e-05
5.26936e-05
5.76227e-05
5.74624e-05
8.66585e-05
8.79465e-05
9.18705e-05
5.96597e-05
6.02077e-05
6.48373e-05
6.50117e-05
8.72537e-05
9.12281e-05
5.96855e-05
5.94086e-05
6.46761e-05
6.44811e-05
5.93707e-05
6.37829e-05
6.48826e-05
8.75421e-05
9.1574e-05
5.92833e-05
6.43258e-05
6.47055e-05
9.23801e-05
9.29814e-05
9.69318e-05
6.66366e-05
6.67729e-05
7.23882e-05
7.2255e-05
9.24121e-05
9.66003e-05
6.65138e-05
6.63258e-05
7.24383e-05
7.19233e-05
6.68163e-05
7.18637e-05
7.31004e-05
9.26701e-05
9.64676e-05
6.65687e-05
7.18035e-05
7.27559e-05
9.66193e-05
9.78631e-05
0.000100854
7.418e-05
7.38437e-05
7.93055e-05
7.83701e-05
9.75552e-05
0.000100689
7.41826e-05
7.35356e-05
7.87424e-05
7.82833e-05
7.48894e-05
7.86877e-05
7.91384e-05
9.74039e-05
0.000100799
7.46167e-05
7.86189e-05
7.92028e-05
0.000100711
0.000101893
0.000108834
8.14804e-05
8.04613e-05
9.00743e-05
8.91347e-05
0.000101784
0.000108857
8.07281e-05
8.04712e-05
8.90844e-05
8.93464e-05
8.09593e-05
8.92188e-05
8.89955e-05
0.000101947
0.000109037
8.11019e-05
8.95684e-05
8.92546e-05
0.0001086
0.000110685
0.000116007
9.31907e-05
9.23606e-05
0.000100716
0.000100096
0.000110712
0.000116039
9.22415e-05
9.25854e-05
9.98811e-05
0.000100387
9.21339e-05
0.000100137
9.99838e-05
0.000110873
0.000116128
9.23977e-05
0.000100451
0.000100232
0.000115976
0.000116697
0.000116274
0.000102182
0.000101651
0.000102107
0.000101721
0.00011673
0.000116287
0.000101454
0.00010191
0.00010157
0.00010188
0.000101674
0.000101859
0.000101962
0.000116806
0.000116306
0.000101887
0.000101999
0.00010211
0.000116464
0.00011613
0.000111435
0.000101458
0.000101092
9.6712e-05
9.6464e-05
0.000116142
0.000111407
0.000100943
0.000101231
9.6366e-05
9.64727e-05
0.000101361
9.65301e-05
9.67055e-05
0.000116158
0.000111398
0.000101503
9.6613e-05
9.68012e-05
0.000111552
0.000111095
0.000107591
9.50094e-05
9.47802e-05
9.1123e-05
9.09298e-05
0.000111065
0.00010753
9.46985e-05
9.47779e-05
9.08864e-05
9.09249e-05
9.49778e-05
9.09318e-05
9.10444e-05
0.000111054
0.000107543
9.50609e-05
9.10044e-05
9.10993e-05
0.00010759
0.000107597
0.000110781
9.08728e-05
9.07343e-05
9.68263e-05
9.6744e-05
0.000107536
0.000110748
9.07356e-05
9.07438e-05
9.67274e-05
9.6768e-05
9.07547e-05
9.67214e-05
9.67539e-05
0.000107551
0.000110774
9.07741e-05
9.67696e-05
9.67521e-05
0.000110765
0.000111855
0.000117889
9.92739e-05
9.92066e-05
0.000108148
0.000108118
0.000111828
0.00011788
9.9187e-05
9.92302e-05
0.000108101
0.000108139
9.92189e-05
0.000108105
0.000108131
0.000111853
0.000117899
9.92117e-05
0.000108135
0.000108116
0.000117887
0.000119501
0.0001297
0.000111915
0.000111892
0.000125817
0.000125807
0.000119495
0.000129699
0.000111878
0.000111912
0.000125801
0.000125819
0.000111905
0.00012581
0.000125821
0.000119512
0.000129707
0.000111892
0.000125823
0.000125815
0.000129704
0.00013199
0.000142305
0.000130881
0.000130873
0.000145021
0.000145015
0.00013199
0.000142305
0.00013087
0.000130884
0.00014502
0.000145019
0.000130888
0.000145027
0.000145031
0.000131995
0.000142305
0.000130885
0.000145035
0.000145035
0.00014231
0.000143993
0.000150365
0.000149012
0.000149007
0.000158292
0.000158286
0.000143993
0.000150365
0.000149015
0.000149009
0.0001583
0.000158284
0.000149023
0.000158305
0.000158303
0.000143992
0.000150362
0.000149028
0.00015831
0.000158311
0.000150369
0.000151265
0.000154257
0.000160529
0.000160523
0.000165145
0.000165137
0.000151266
0.000154259
0.000160538
0.00016052
0.000165154
0.000165134
0.00016054
0.000165163
0.000165155
0.000151262
0.000154255
0.000160549
0.000165165
0.000165166
0.000154262
0.000154613
0.000155885
0.00016613
0.000166122
0.000168003
0.000167995
0.000154615
0.000155888
0.000166141
0.000166119
0.000168015
0.000167992
0.000166141
0.000168027
0.000168015
0.000154611
0.000155883
0.000166152
0.000168026
0.000168027
0.000155891
0.000155987
0.000156539
0.000168381
0.000168373
0.000169106
0.0001691
0.00015599
0.000156544
0.000168394
0.000168371
0.00016912
0.000169095
0.000168393
0.000169134
0.000169117
0.000155985
0.000156537
0.000168406
0.00016913
0.000169132
0.000156545
0.00015653
0.000156793
0.000169253
0.000169246
0.00016948
0.000169474
0.000156534
0.000156798
0.000169267
0.000169241
0.000169493
0.000169467
0.000169264
0.000169507
0.00016949
0.000156527
0.000156789
0.000169278
0.000169503
0.000169505
0.000156798
0.00015674
0.000156788
0.000169499
0.000169492
0.000169469
0.000169462
0.000156744
0.000156792
0.000169512
0.000169486
0.000169481
0.000169456
0.000169509
0.000169495
0.00016948
0.000156736
0.000156786
0.000169523
0.000169492
0.000169494
0.000156794
0.000156691
0.000156701
0.000169452
0.000169444
0.000169458
0.000169451
0.000156695
0.000156706
0.000169465
0.000169439
0.000169471
0.000169445
0.000169463
0.000169484
0.000169469
0.000156689
0.000156698
0.000169477
0.000169482
0.000169483
0.000156706
0.000156668
0.000156868
0.000169491
0.000169485
0.000169524
0.000169517
0.000156672
0.000156873
0.000169503
0.000169478
0.000169536
0.00016951
0.000169502
0.00016955
0.000169534
0.000156665
0.000156865
0.000169515
0.000169546
0.000169547
0.000156873
0.000156802
0.000156718
0.000169523
0.000169516
0.000169475
0.000169468
0.000156807
0.000156719
0.000169535
0.000169509
0.000169487
0.000169462
0.000169532
0.000169501
0.000169485
0.000156799
0.000156711
0.000169545
0.000169497
0.000169499
0.000156719
0.00015663
0.000156813
0.00016947
0.000169464
0.000169505
0.000169498
0.000156632
0.000156822
0.000169483
0.000169457
0.000169517
0.000169492
0.000169481
0.00016953
0.000169515
0.000156624
0.000156816
0.000169495
0.000169529
0.00016953
0.000156825
0.000156765
0.000156753
0.000169511
0.000169504
0.000169484
0.000169477
0.000156774
0.000156751
0.000169523
0.000169498
0.000169496
0.000169471
0.000169521
0.00016951
0.000169494
0.000156768
0.000156743
0.000169535
0.000169506
0.000169507
0.00015675
0.000156658
0.000156817
0.000169482
0.000169475
0.000169497
0.000169491
0.000156656
0.000156829
0.000169493
0.000169468
0.00016951
0.000169485
0.000169492
0.000169523
0.000169507
0.000156648
0.00015682
0.000169505
0.00016952
0.000169521
0.000156828
0.000156766
0.000156724
0.000169497
0.00016949
0.000169491
0.000169484
0.000156776
0.000156722
0.000169511
0.000169485
0.000169502
0.000169476
0.000169506
0.000169516
0.000169501
0.000156768
0.000156715
0.000169521
0.000169514
0.000169516
0.000156725
0.000156637
0.000156846
0.000169491
0.000169487
0.000169492
0.000169484
0.000156641
0.000156849
0.000169502
0.000169477
0.000169504
0.000169478
0.000169503
0.000169518
0.000169502
0.000156633
0.000156841
0.000169516
0.000169514
0.000169515
0.00015685
0.00015677
0.000156737
0.000169491
0.000169483
0.000169495
0.00016949
0.000156764
0.00015676
0.000169504
0.000169478
0.000169504
0.00016948
0.000169501
0.000169521
0.000169505
0.000156755
0.000156758
0.000169515
0.000169519
0.00016952
0.00015676
0.000156707
0.000156748
0.000169495
0.000169489
0.000169491
0.000169483
0.000156726
0.000156742
0.000169504
0.000169479
0.000169504
0.000169478
0.000169504
0.000169518
0.000169502
0.000156724
0.000156729
0.000169519
0.000169514
0.000169514
0.000156741
0.000156657
0.000156832
0.000169493
0.000169487
0.000169492
0.000169484
0.000156655
0.000156822
0.000169504
0.000169481
0.000169503
0.000169476
0.000169505
0.000169517
0.0001695
0.000156646
0.000156801
0.000169518
0.000169513
0.000169514
0.000156815
0.000156739
0.000156805
0.00016949
0.000169483
0.000169496
0.000169489
0.000156721
0.000156829
0.000169502
0.000169476
0.000169506
0.000169482
0.0001695
0.000169523
0.000169507
0.0001567
0.000156826
0.000169513
0.00016952
0.000169521
0.000156832
0.000156756
0.000156725
0.000169494
0.000169485
0.000169491
0.000169488
0.000156765
0.000156782
0.000169505
0.000169477
0.000169502
0.00016948
0.000169501
0.000169524
0.000169507
0.000156756
0.000156782
0.000169515
0.00016952
0.00016952
0.000156769
0.000156687
0.000156745
0.000169493
0.000169489
0.000169491
0.000169485
0.000156745
0.000156726
0.000169503
0.00016948
0.000169504
0.000169479
0.00016951
0.000169514
0.000169496
0.000156742
0.000156722
0.000169523
0.000169511
0.00016951
0.000156729
0.000156656
0.000156809
0.000169491
0.000169488
0.000169492
0.000169485
0.000156679
0.000156752
0.000169502
0.00016948
0.000169504
0.000169478
0.000169498
0.000169522
0.000169506
0.000156681
0.000156739
0.000169512
0.000169518
0.000169519
0.000156777
0.000156708
0.000156826
0.000169492
0.000169486
0.000169494
0.000169486
0.00015666
0.00015683
0.000169504
0.00016948
0.000169504
0.000169477
0.000169503
0.00016952
0.000169501
0.000156652
0.000156789
0.000169516
0.000169516
0.000169516
0.000156823
0.000156755
0.000156799
0.000169492
0.000169485
0.000169496
0.000169488
0.000156729
0.000156819
0.000169503
0.000169477
0.000169507
0.000169479
0.000169501
0.000169519
0.000169504
0.00015669
0.000156792
0.000169515
0.000169515
0.000169519
0.000156816
0.000156753
0.000156723
0.000169494
0.000169487
0.000169492
0.000169489
0.000156754
0.000156822
0.000169504
0.000169478
0.000169504
0.000169481
0.000169508
0.000169523
0.000169501
0.000156691
0.000156802
0.000169523
0.000169516
0.000169512
0.000156729
0.000156683
0.000156777
0.000169497
0.000169486
0.000169498
0.000169492
0.000156754
0.000156813
0.000169508
0.000169477
0.000169507
0.000169483
0.0001695
0.000169527
0.000169508
0.000156697
0.000156831
0.000169512
0.000169523
0.000169522
0.000156847
0.000156694
0.000156712
0.000169495
0.000169492
0.00016949
0.000169484
0.000156767
0.000156715
0.000169507
0.000169483
0.000169501
0.000169476
0.000169507
0.000169518
0.000169503
0.000156769
0.000156733
0.000169518
0.000169514
0.000169518
0.000156781
0.000156648
0.000156794
0.000169498
0.00016949
0.000169493
0.000169486
0.000156656
0.000156806
0.000169508
0.000169481
0.000169504
0.000169479
0.000169508
0.00016952
0.000169502
0.000156699
0.000156756
0.000169523
0.000169515
0.000169512
0.000156721
0.00015669
0.000156821
0.000169491
0.000169485
0.000169493
0.000169488
0.000156703
0.000156833
0.000169502
0.000169478
0.000169508
0.00016948
0.000169503
0.000169527
0.000169507
0.000156686
0.000156747
0.000169515
0.000169518
0.000169521
0.00015681
0.000156767
0.000156721
0.000169493
0.000169487
0.000169491
0.000169485
0.000156779
0.000156721
0.000169507
0.000169481
0.000169503
0.000169479
0.000169504
0.00016952
0.000169508
0.000156721
0.000156728
0.000169516
0.000169515
0.000169519
0.000156834
0.000156674
0.000156764
0.000169492
0.000169486
0.000169493
0.000169487
0.000156681
0.000156773
0.000169504
0.000169479
0.000169504
0.000169482
0.000169509
0.000169519
0.000169504
0.000156645
0.000156812
0.00016952
0.000169518
0.000169517
0.000156757
0.000156672
0.000156823
0.000169493
0.000169487
0.000169493
0.000169488
0.00015668
0.000156832
0.000169503
0.000169481
0.000169504
0.00016948
0.000169507
0.000169521
0.000169503
0.000156712
0.000156817
0.000169518
0.000169515
0.000169516
0.000156744
0.000156734
0.000156815
0.000169495
0.000169489
0.000169494
0.000169488
0.000156751
0.000156816
0.000169505
0.000169481
0.000169503
0.000169478
0.000169504
0.000169521
0.000169504
0.000156753
0.000156784
0.000169519
0.000169514
0.000169515
0.000156791
0.000156754
0.000156774
0.000169493
0.000169488
0.000169494
0.000169491
0.000156758
0.00015678
0.000169504
0.00016948
0.000169504
0.000169477
0.000169503
0.000169521
0.000169503
0.000156743
0.000156722
0.000169516
0.000169515
0.000169518
0.000156837
0.000156735
0.000156734
0.000169495
0.000169493
0.00016949
0.000169485
0.000156745
0.00015672
0.000169505
0.000169479
0.000169504
0.000169477
0.000169503
0.000169516
0.000169502
0.000156689
0.000156734
0.000169516
0.000169513
0.000169515
0.000156812
0.000156695
0.000156725
0.000169493
0.000169488
0.00016949
0.000169487
0.000156643
0.000156818
0.000169505
0.000169478
0.000169502
0.000169478
0.000169504
0.000169517
0.0001695
0.000156644
0.000156816
0.000169518
0.000169512
0.000169511
0.000156752
0.00015666
0.000156752
0.000169493
0.000169487
0.00016949
0.000169487
0.000156713
0.000156824
0.000169505
0.000169479
0.0001695
0.000169477
0.000169504
0.000169517
0.000169499
0.000156714
0.000156814
0.000169514
0.000169514
0.000169512
0.000156725
0.000156657
0.000156839
0.000169492
0.000169489
0.000169491
0.000169483
0.000156768
0.00015674
0.000169503
0.00016948
0.000169502
0.000169475
0.000169503
0.000169514
0.000169498
0.000156757
0.000156737
0.000169514
0.00016951
0.000169511
0.000156733
0.000156751
0.00015678
0.000169493
0.000169488
0.000169489
0.000169481
0.000156709
0.000156735
0.000169504
0.000169481
0.000169501
0.000169473
0.000169502
0.000169514
0.000169499
0.000156705
0.000156729
0.000169515
0.000169508
0.000169509
0.000156745
0.00015674
0.00015672
0.000169494
0.000169485
0.000169488
0.000169482
0.000156653
0.000156785
0.000169507
0.000169479
0.000169501
0.000169476
0.000169502
0.000169514
0.000169498
0.000156649
0.000156771
0.000169515
0.000169509
0.000169509
0.000156771
0.000156657
0.000156761
0.000169494
0.000169486
0.000169489
0.000169483
0.000156686
0.000156827
0.000169506
0.000169479
0.0001695
0.000169475
0.000169504
0.000169514
0.000169497
0.000156676
0.000156808
0.000169514
0.00016951
0.00016951
0.000156809
0.000156668
0.000156799
0.000169496
0.000169489
0.000169488
0.000169481
0.000156736
0.000156818
0.000169509
0.000169483
0.0001695
0.000169474
0.000169504
0.000169513
0.000169497
0.000156711
0.000156812
0.000169515
0.000169509
0.00016951
0.000156818
0.0001567
0.00015683
0.000169497
0.000169491
0.00016949
0.000169482
0.000156744
0.000156821
0.000169508
0.000169482
0.000169503
0.000169477
0.000169506
0.000169515
0.000169499
0.000156723
0.000156816
0.000169519
0.000169509
0.00016951
0.000156804
0.000156744
0.000156808
0.000169501
0.000169494
0.000169494
0.000169487
0.000156743
0.000156826
0.000169513
0.000169488
0.000169505
0.000169479
0.00016951
0.000169519
0.000169502
0.000156731
0.000156817
0.000169522
0.000169514
0.000169514
0.000156808
0.00015676
0.000156737
0.00016951
0.000169502
0.000169505
0.000169501
0.000156756
0.000156805
0.000169522
0.000169496
0.000169517
0.000169493
0.000169518
0.000169533
0.000169516
0.000156749
0.000156786
0.000169529
0.000169528
0.000169529
0.000156821
0.000156684
0.000157372
0.000169488
0.000169483
0.00017127
0.000171268
0.000156749
0.00015739
0.0001695
0.000169474
0.000171283
0.000171263
0.000169497
0.000171295
0.000171282
0.000156739
0.000157378
0.00016951
0.000171291
0.000171295
0.000157402
0.000158359
0.0001694
0.000169398
0.000158377
0.000169412
0.000169393
0.00016771
0.000167707
0.00016772
0.000169411
0.000158377
0.000169423
4.77798e-05
5.22281e-06
3.12262e-05
3.11428e-05
6.98776e-07
2.38857e-06
1.73921e-06
1.78815e-05
5.40888e-07
2.60582e-06
1.84337e-05
1.01157e-06
2.28846e-06
1.78991e-06
1.7144e-06
1.0621e-06
1.35258e-05
1.00986e-06
1.53107e-05
1.08556e-05
1.32235e-05
1.1123e-06
1.35251e-05
1.05552e-06
1.52746e-05
1.67795e-05
1.68773e-05
1.67851e-05
1.64921e-05
1.66058e-05
1.66033e-05
1.66026e-05
6.41352e-07
5.36074e-07
7.31791e-06
2.47573e-06
6.6213e-07
6.52981e-07
7.24308e-06
1.09663e-05
1.32117e-05
5.47492e-07
7.78042e-06
4.96941e-07
2.43265e-06
5.12583e-07
7.81293e-06
6.37037e-07
1.5033e-06
1.49362e-06
2.32366e-06
1.70711e-06
1.7026e-06
1.2059e-06
1.8639e-05
1.21693e-06
2.08775e-05
1.72026e-05
1.9387e-05
1.25723e-06
1.86837e-05
1.26305e-06
2.08618e-05
1.67067e-05
1.67034e-05
1.67008e-05
1.69062e-05
1.7028e-05
1.71096e-05
1.70125e-05
6.13461e-07