/*--------------------------------*- C++ -*----------------------------------*\
| =========                 |                                                 |
| \\      /  F ield         | OpenFOAM: The Open Source CFD Toolbox           |
|  \\    /   O peration     | Version:  v1906                                 |
|   \\  /    A nd           | Web:      www.OpenFOAM.com                      |
|    \\/     M anipulation  |                                                 |
\*---------------------------------------------------------------------------*/
FoamFile
{
    version     2.0;
    format      ascii;
    class       volScalarField;
    location    "200";
    object      p;
}
// * * * * * * * * * * * * * * * * * * * * * * * * * * * * * * * * * * * * * //

dimensions      [0 2 -2 0 0 0 0];


internalField   nonuniform List<scalar> 
171728
(
0.00353064
0.00352975
0.00352978
0.00353071
0.00349484
0.00349353
0.00349364
0.00349643
0.00345732
0.00345551
0.00345552
0.00345781
0.00341292
0.00341133
0.00341131
0.0034137
0.00336452
0.00336298
0.00336318
0.00336554
0.00331611
0.00331474
0.00331497
0.00331717
0.00326814
0.00326684
0.00326705
0.00326935
0.00322082
0.0032196
0.00321966
0.00322216
0.0031746
0.00317348
0.00317344
0.00317604
0.00312934
0.00312838
0.00312836
0.00313091
0.00308496
0.00308412
0.00308412
0.00308664
0.00304138
0.00304061
0.00304066
0.00304309
0.00299829
0.00299762
0.00299767
0.00300011
0.00295562
0.00295499
0.0029551
0.00295752
0.00291325
0.00291261
0.00291281
0.00291522
0.00287117
0.00287056
0.00287072
0.00287305
0.00282946
0.00282904
0.00282907
0.00283155
0.00278808
0.00278786
0.00278775
0.00279015
0.00274707
0.00274674
0.00274682
0.00274914
0.0027064
0.00270603
0.00270592
0.0027082
0.00266602
0.00266571
0.00266582
0.0026679
0.00262595
0.00262569
0.00262563
0.00262776
0.00258622
0.00258598
0.00258601
0.00258803
0.00254675
0.00254656
0.00254654
0.00254863
0.00250752
0.00250734
0.00250732
0.00250941
0.00246858
0.00246841
0.00246841
0.00247066
0.00242986
0.00242972
0.00242971
0.002432
0.00239137
0.00239126
0.00239127
0.0023936
0.00235311
0.00235304
0.00235303
0.00235539
0.00231507
0.00231499
0.00231501
0.00231735
0.00227721
0.00227721
0.00227722
0.00227951
0.00223953
0.00223958
0.00223956
0.0022418
0.00220207
0.00220216
0.00220218
0.00220433
0.0021648
0.00216494
0.00216491
0.00216704
0.00212774
0.00212786
0.0021279
0.00212996
0.00209093
0.00209106
0.00209107
0.00209312
0.00205441
0.00205454
0.00205453
0.00205651
0.00201831
0.00201839
0.00201839
0.00202032
0.00198273
0.00198278
0.00198277
0.00198466
0.00194769
0.00194772
0.00194773
0.00194963
0.00191329
0.00191333
0.00191332
0.00191522
0.00187883
0.00187879
0.00187878
0.00188068
0.00184328
0.00184323
0.00184323
0.00184525
0.00180677
0.00180681
0.00180681
0.00180899
0.00177021
0.00177034
0.00177035
0.00177257
0.00173501
0.00173497
0.00173498
0.00173706
0.00170115
0.00170078
0.00170078
0.00170271
0.00166832
0.00166766
0.00166766
0.00166945
0.00163574
0.00163489
0.00163489
0.00163658
0.00160244
0.0016017
0.0016017
0.00160342
0.00156826
0.00156781
0.00156781
0.00156965
0.00153341
0.00153319
0.00153319
0.00153513
0.00149811
0.001498
0.001498
0.00150002
0.00146254
0.00146249
0.00146249
0.00146454
0.00142685
0.00142682
0.00142682
0.00142888
0.00139111
0.00139108
0.00139108
0.00139315
0.00135538
0.00135535
0.00135535
0.00135742
0.00131964
0.00131961
0.00131961
0.00132167
0.0012839
0.00128387
0.00128387
0.00128593
0.00124816
0.00124813
0.00124813
0.00125019
0.00121242
0.00121239
0.00121239
0.00121445
0.00117668
0.00117664
0.00117664
0.00117871
0.00114093
0.00114091
0.00114091
0.00114297
0.00110519
0.00110516
0.00110516
0.00110723
0.00106945
0.00106942
0.00106942
0.00107149
0.00103371
0.00103368
0.00103368
0.00103575
0.000997971
0.000997941
0.000997941
0.001
0.00096223
0.000962199
0.000962199
0.000964263
0.00092649
0.000926462
0.000926462
0.000928526
0.00089075
0.000890723
0.000890722
0.000892787
0.00085501
0.00085498
0.000854981
0.000857046
0.000819271
0.000819242
0.000819243
0.000821305
0.000783532
0.000783502
0.000783503
0.000785567
0.000747792
0.000747761
0.000747761
0.000749827
0.000712052
0.000712023
0.000712022
0.000714085
0.000676312
0.000676285
0.000676285
0.000678348
0.000640571
0.000640541
0.000640543
0.000642608
0.000604831
0.0006048
0.000604802
0.000606864
0.000569091
0.000569063
0.000569062
0.000571125
0.000533352
0.000533323
0.000533321
0.000535387
0.000497612
0.000497582
0.000497584
0.000499648
0.000461873
0.000461843
0.000461845
0.000463907
0.000426135
0.000426105
0.000426105
0.000428166
0.000390396
0.000390368
0.000390368
0.000392429
0.000354657
0.000354628
0.000354627
0.000356691
0.000318918
0.00031889
0.000318887
0.000320952
0.000283179
0.000283152
0.000283152
0.000285212
0.00024744
0.000247411
0.000247413
0.000249471
0.000211701
0.000211672
0.000211672
0.000213729
0.000175962
0.000175934
0.000175933
0.000177984
0.00014022
0.000140194
0.000140194
0.000142234
0.000104468
0.000104449
0.00010445
0.000106472
6.87253e-05
6.87017e-05
6.87003e-05
7.06919e-05
3.37975e-05
3.32513e-05
3.32484e-05
3.50598e-05
5.68827e-06
6.15434e-06
6.15471e-06
4.85104e-06
0.00353549
0.00353337
0.00353341
0.00353553
0.00353335
0.00353341
0.00353918
0.00353918
0.00353917
0.00353919
0.00353341
0.0035334
0.00353554
0.00353347
0.00353341
0.00353553
0.0035307
0.00350108
0.00352975
0.00352978
0.0035028
0.00350274
0.00353071
0.00350107
0.00352975
0.00352974
0.00350282
0.0035028
0.00352975
0.0035028
0.00350284
0.00353071
0.00350109
0.00352977
0.00350275
0.00350279
0.00350109
0.00349643
0.00346322
0.00349356
0.00349356
0.00346531
0.00346532
0.00349645
0.00346324
0.00349356
0.00349354
0.0034653
0.00346533
0.00349355
0.00346537
0.00346537
0.00349645
0.00346325
0.00349355
0.00346536
0.00346535
0.00346325
0.00345778
0.00341993
0.00345549
0.00345554
0.003423
0.00342298
0.00345781
0.00341994
0.00345547
0.00345548
0.00342301
0.00342299
0.00345548
0.00342299
0.00342302
0.00345781
0.00341996
0.00345548
0.00342315
0.00342302
0.00341995
0.00341368
0.003372
0.00341132
0.00341134
0.00337517
0.00337521
0.00341369
0.003372
0.00341132
0.00341136
0.00337517
0.00337524
0.00341134
0.00337521
0.0033752
0.00341371
0.00337204
0.00341133
0.00337512
0.0033752
0.003372
0.00336553
0.00332356
0.00336302
0.00336299
0.0033267
0.00332667
0.00336553
0.00332355
0.00336302
0.00336301
0.0033267
0.00332671
0.00336301
0.00332668
0.00332672
0.00336558
0.00332354
0.00336304
0.00332677
0.00332672
0.00332356
0.00331717
0.00327566
0.00331467
0.00331472
0.00327879
0.00327886
0.00331717
0.00327565
0.00331467
0.00331465
0.0032788
0.00327882
0.00331468
0.00327885
0.00327879
0.00331718
0.00327561
0.00331469
0.00327883
0.0032788
0.00327566
0.00326934
0.00322835
0.00326687
0.00326687
0.00323136
0.0032314
0.00326935
0.00322837
0.00326686
0.00326684
0.00323136
0.00323139
0.00326688
0.00323137
0.00323136
0.00326931
0.00322834
0.00326689
0.00323127
0.00323134
0.00322834
0.00322215
0.00318209
0.00321965
0.00321961
0.00318496
0.00318501
0.00322218
0.00318209
0.00321964
0.00321964
0.00318496
0.00318498
0.00321965
0.00318497
0.00318496
0.00322214
0.0031821
0.00321964
0.00318489
0.00318495
0.00318208
0.00317605
0.00313681
0.00317352
0.00317351
0.00313958
0.00313963
0.00317604
0.00313681
0.00317352
0.00317355
0.00313957
0.00313958
0.00317353
0.00313962
0.00313959
0.00317607
0.00313682
0.00317353
0.00313955
0.00313957
0.00313681
0.0031309
0.00309241
0.00312838
0.00312839
0.00309508
0.00309516
0.00313091
0.00309245
0.00312837
0.0031284
0.00309508
0.00309511
0.00312837
0.00309515
0.00309508
0.00313091
0.00309241
0.00312838
0.00309512
0.0030951
0.00309241
0.00308663
0.00304884
0.00308409
0.00308413
0.00305142
0.00305134
0.00308663
0.00304874
0.00308408
0.00308412
0.00305141
0.00305146
0.0030841
0.00305133
0.00305139
0.00308661
0.00304883
0.00308409
0.00305147
0.0030514
0.00304876
0.00304315
0.00300574
0.0030406
0.00304058
0.00300823
0.00300837
0.0030431
0.00300573
0.0030406
0.00304065
0.00300823
0.00300835
0.00304058
0.00300836
0.00300829
0.00304311
0.00300576
0.00304059
0.00300835
0.00300828
0.0030057
0.00300016
0.0029631
0.00299765
0.00299766
0.0029655
0.0029657
0.00300008
0.00296308
0.00299763
0.00299767
0.00296554
0.00296567
0.00299758
0.00296573
0.00296558
0.00300013
0.00296313
0.00299757
0.00296567
0.00296558
0.00296305
0.0029576
0.00292062
0.00295509
0.002955
0.00292311
0.00292321
0.0029575
0.00292063
0.00295505
0.00295508
0.00292313
0.00292319
0.00295499
0.00292322
0.00292322
0.00295756
0.00292077
0.00295501
0.00292317
0.00292323
0.0029207
0.00291517
0.00287857
0.00291265
0.00291259
0.00288124
0.00288125
0.00291515
0.00287853
0.00291267
0.00291282
0.00288122
0.00288114
0.00291269
0.00288122
0.0028812
0.00291533
0.00287857
0.00291272
0.00288114
0.00288121
0.00287852
0.0028731
0.00283687
0.00287058
0.00287056
0.00283948
0.00283961
0.00287306
0.00283683
0.00287063
0.0028707
0.00283946
0.00283949
0.00287064
0.00283962
0.00283959
0.00287314
0.00283685
0.00287064
0.00283952
0.0028396
0.00283698
0.00283147
0.00279534
0.002829
0.00282905
0.00279803
0.00279817
0.00283141
0.00279556
0.00282902
0.00282904
0.00279802
0.00279808
0.00282918
0.00279816
0.00279799
0.00283145
0.00279544
0.00282918
0.00279808
0.00279799
0.00279546
0.00279001
0.00275432
0.00278763
0.00278789
0.00275705
0.00275683
0.00279022
0.00275431
0.00278761
0.00278775
0.00275706
0.00275694
0.00278781
0.00275683
0.00275692
0.00279009
0.00275443
0.0027878
0.00275695
0.00275694
0.00275442
0.00274906
0.00271367
0.00274682
0.00274674
0.002716
0.00271612
0.00274907
0.00271353
0.00274681
0.00274682
0.002716
0.00271608
0.00274679
0.00271611
0.00271604
0.00274916
0.00271341
0.00274678
0.00271608
0.00271604
0.00271345
0.00270843
0.00267294
0.00270611
0.00270603
0.00267583
0.00267585
0.00270833
0.00267294
0.00270611
0.00270593
0.00267583
0.00267589
0.00270588
0.00267586
0.00267595
0.0027082
0.00267304
0.00270587
0.00267591
0.00267595
0.00267298
0.0026678
0.00263288
0.00266566
0.00266569
0.00263567
0.00263566
0.00266781
0.00263285
0.00266567
0.00266581
0.00263566
0.00263561
0.00266581
0.00263566
0.00263556
0.00266793
0.00263286
0.00266581
0.0026356
0.00263556
0.00263287
0.00262781
0.00259306
0.0026257
0.00262568
0.00259586
0.00259587
0.00262778
0.00259307
0.00262569
0.00262563
0.00259585
0.00259588
0.00262566
0.00259588
0.00259588
0.00262773
0.00259309
0.00262566
0.00259588
0.00259589
0.0025931
0.00258802
0.00255362
0.00258598
0.00258598
0.0025564
0.0025564
0.00258803
0.00255361
0.00258598
0.002586
0.0025564
0.00255637
0.00258596
0.0025564
0.0025564
0.00258807
0.00255362
0.00258597
0.00255637
0.00255639
0.00255361
0.0025486
0.00251441
0.00254655
0.00254656
0.00251712
0.0025171
0.0025486
0.00251439
0.00254655
0.00254654
0.00251711
0.00251712
0.00254657
0.00251711
0.0025171
0.0025486
0.00251445
0.00254657
0.00251712
0.0025171
0.0025144
0.00250945
0.00247561
0.00250734
0.00250734
0.00247813
0.00247812
0.00250942
0.0024756
0.00250733
0.00250733
0.00247813
0.00247812
0.00250732
0.00247812
0.00247813
0.00250946
0.00247559
0.00250732
0.00247812
0.00247812
0.00247562
0.00247066
0.00243691
0.00246842
0.0024684
0.00243935
0.00243937
0.00247064
0.00243695
0.00246842
0.00246842
0.00243934
0.00243936
0.00246841
0.00243937
0.00243937
0.00247065
0.00243695
0.00246841
0.00243936
0.00243936
0.00243694
0.00243197
0.00239858
0.00242971
0.00242972
0.00240087
0.00240086
0.00243202
0.0023985
0.00242971
0.00242972
0.00240088
0.00240087
0.00242972
0.00240085
0.00240085
0.00243201
0.00239856
0.00242972
0.00240086
0.00240086
0.00239854
0.00239365
0.00236027
0.00239127
0.00239126
0.00236256
0.00236258
0.00239356
0.00236034
0.00239127
0.00239127
0.00236255
0.00236255
0.00239127
0.00236259
0.00236257
0.00239363
0.00236027
0.00239127
0.00236257
0.00236256
0.00236031
0.00235536
0.00232228
0.00235302
0.00235302
0.0023245
0.00232449
0.00235542
0.00232222
0.00235302
0.00235302
0.0023245
0.00232452
0.00235302
0.00232447
0.00232449
0.00235535
0.00232228
0.00235302
0.0023245
0.00232449
0.00232226
0.00231738
0.00228439
0.00231502
0.00231502
0.00228662
0.0022866
0.00231732
0.0022844
0.00231503
0.00231502
0.00228663
0.00228663
0.00231501
0.00228663
0.00228664
0.00231737
0.0022844
0.00231501
0.00228665
0.00228664
0.00228441
0.00227947
0.0022467
0.00227718
0.00227716
0.00224898
0.00224897
0.0022795
0.0022467
0.00227719
0.0022772
0.00224896
0.00224897
0.00227721
0.00224897
0.00224896
0.0022795
0.0022467
0.0022772
0.00224895
0.00224896
0.0022467
0.00224181
0.00220918
0.00223958
0.00223959
0.00221146
0.0022115
0.00224181
0.00220921
0.00223958
0.00223957
0.00221151
0.0022115
0.00223956
0.0022115
0.0022115
0.0022418
0.00220922
0.00223957
0.00221151
0.0022115
0.00220921
0.0022043
0.0021719
0.00220214
0.00220216
0.00217422
0.00217423
0.00220433
0.00217192
0.00220217
0.00220216
0.0021742
0.00217421
0.00220217
0.00217423
0.00217423
0.00220434
0.00217189
0.00220217
0.00217421
0.00217423
0.00217191
0.00216703
0.00213478
0.00216493
0.00216495
0.00213712
0.00213713
0.00216705
0.00213478
0.0021649
0.00216492
0.00213711
0.00213714
0.00216494
0.00213712
0.00213714
0.00216702
0.0021348
0.00216494
0.00213714
0.00213715
0.00213481
0.00212994
0.00209796
0.00212789
0.00212789
0.00210029
0.00210026
0.00212993
0.00209793
0.00212787
0.0021279
0.00210027
0.00210026
0.0021279
0.00210023
0.00210027
0.00212995
0.00209792
0.0021279
0.00210025
0.00210027
0.00209795
0.00209313
0.00206133
0.0020911
0.00209108
0.00206365
0.00206361
0.00209311
0.00206132
0.00209109
0.00209107
0.00206364
0.00206363
0.00209109
0.00206364
0.00206362
0.00209309
0.00206132
0.00209109
0.00206363
0.00206363
0.0020613
0.00205653
0.0020251
0.00205455
0.00205449
0.00202739
0.00202736
0.00205652
0.00202511
0.00205454
0.00205452
0.00202739
0.00202738
0.00205452
0.00202738
0.00202737
0.00205652
0.0020251
0.00205452
0.00202738
0.00202737
0.00202508
0.00202035
0.00198937
0.0020184
0.00201839
0.00199162
0.00199164
0.00202036
0.0019894
0.0020184
0.00201839
0.00199162
0.00199162
0.00201837
0.00199163
0.00199159
0.00202036
0.00198937
0.00201837
0.00199162
0.00199159
0.00198934
0.00198469
0.00195422
0.00198277
0.00198279
0.00195642
0.00195643
0.00198471
0.00195424
0.00198276
0.00198276
0.0019564
0.00195642
0.00198274
0.00195643
0.00195639
0.00198469
0.00195424
0.00198275
0.00195643
0.00195641
0.00195424
0.00194962
0.00191975
0.00194771
0.00194773
0.00192186
0.00192189
0.00194963
0.00191975
0.00194769
0.00194772
0.00192187
0.00192189
0.00194769
0.00192188
0.00192187
0.00194963
0.00191974
0.0019477
0.00192187
0.00192186
0.00191976
0.0019152
0.0018853
0.00191331
0.00191334
0.00188748
0.0018875
0.00191521
0.0018853
0.00191333
0.00191334
0.00188752
0.00188751
0.00191334
0.00188751
0.00188754
0.0019152
0.00188529
0.00191333
0.0018875
0.00188753
0.00188532
0.00188066
0.00185002
0.00187876
0.00187877
0.00185221
0.00185221
0.00188066
0.00185002
0.00187879
0.00187878
0.00185222
0.00185221
0.00187881
0.00185222
0.00185224
0.00188066
0.00185002
0.0018788
0.00185222
0.00185223
0.00185003
0.00184525
0.00181387
0.00184323
0.00184322
0.00181597
0.00181596
0.00184524
0.00181386
0.00184324
0.00184322
0.00181597
0.00181596
0.00184324
0.00181596
0.00181596
0.00184525
0.00181387
0.00184324
0.00181596
0.00181596
0.00181386
0.001809
0.00177739
0.00180682
0.00180681
0.0017794
0.00177939
0.00180899
0.00177738
0.00180681
0.00180681
0.00177939
0.00177939
0.00180681
0.00177939
0.00177939
0.001809
0.00177739
0.00180681
0.00177939
0.00177939
0.00177738
0.00177257
0.00174171
0.00177035
0.00177034
0.00174369
0.00174369
0.00177257
0.00174171
0.00177035
0.00177035
0.00174369
0.00174369
0.00177034
0.00174369
0.00174369
0.00177257
0.00174171
0.00177035
0.00174369
0.00174369
0.00174171
0.00173705
0.00170721
0.00173498
0.00173497
0.00170923
0.00170922
0.00173705
0.00170721
0.00173497
0.00173498
0.00170922
0.00170922
0.00173498
0.00170922
0.00170922
0.00173706
0.00170721
0.00173498
0.00170922
0.00170923
0.00170721
0.00170271
0.00167384
0.00170078
0.00170078
0.00167587
0.00167587
0.00170271
0.00167384
0.00170078
0.00170078
0.00167587
0.00167587
0.00170078
0.00167587
0.00167587
0.00170271
0.00167384
0.00170078
0.00167587
0.00167587
0.00167384
0.00166945
0.00164098
0.00166766
0.00166766
0.0016431
0.0016431
0.00166945
0.00164098
0.00166766
0.00166766
0.0016431
0.0016431
0.00166766
0.0016431
0.0016431
0.00166945
0.00164098
0.00166766
0.0016431
0.0016431
0.00164098
0.00163658
0.00160791
0.00163489
0.00163489
0.00161005
0.00161005
0.00163658
0.00160791
0.00163489
0.00163489
0.00161005
0.00161005
0.00163489
0.00161005
0.00161005
0.00163658
0.00160791
0.00163489
0.00161005
0.00161005
0.00160791
0.00160342
0.00157424
0.0016017
0.0016017
0.00157635
0.00157635
0.00160342
0.00157424
0.0016017
0.0016017
0.00157635
0.00157635
0.0016017
0.00157635
0.00157635
0.00160342
0.00157424
0.0016017
0.00157635
0.00157635
0.00157424
0.00156965
0.00153983
0.00156781
0.00156781
0.0015419
0.0015419
0.00156965
0.00153983
0.00156781
0.00156781
0.0015419
0.0015419
0.00156781
0.0015419
0.0015419
0.00156965
0.00153983
0.00156781
0.0015419
0.0015419
0.00153983
0.00153513
0.00150478
0.00153319
0.00153319
0.00150684
0.00150684
0.00153513
0.00150478
0.00153319
0.00153319
0.00150684
0.00150684
0.00153319
0.00150684
0.00150684
0.00153513
0.00150478
0.00153319
0.00150684
0.00150684
0.00150478
0.00150002
0.00146933
0.001498
0.001498
0.00147139
0.00147139
0.00150002
0.00146933
0.001498
0.001498
0.00147139
0.00147139
0.001498
0.00147139
0.00147139
0.00150002
0.00146933
0.001498
0.00147139
0.00147139
0.00146933
0.00146454
0.00143369
0.00146249
0.00146249
0.00143574
0.00143574
0.00146454
0.00143369
0.00146249
0.00146249
0.00143574
0.00143574
0.00146249
0.00143574
0.00143574
0.00146454
0.00143369
0.00146249
0.00143574
0.00143574
0.00143369
0.00142888
0.00139796
0.00142682
0.00142682
0.00140002
0.00140002
0.00142888
0.00139796
0.00142682
0.00142682
0.00140002
0.00140002
0.00142682
0.00140002
0.00140002
0.00142888
0.00139796
0.00142682
0.00140002
0.00140002
0.00139796
0.00139315
0.00136223
0.00139108
0.00139108
0.00136429
0.00136429
0.00139315
0.00136223
0.00139108
0.00139108
0.00136429
0.00136429
0.00139108
0.00136429
0.00136429
0.00139315
0.00136223
0.00139108
0.00136429
0.00136429
0.00136223
0.00135742
0.00132649
0.00135535
0.00135535
0.00132854
0.00132854
0.00135742
0.00132649
0.00135535
0.00135535
0.00132854
0.00132854
0.00135535
0.00132854
0.00132854
0.00135742
0.00132649
0.00135535
0.00132854
0.00132854
0.00132649
0.00132167
0.00129075
0.00131961
0.00131961
0.0012928
0.0012928
0.00132167
0.00129075
0.00131961
0.00131961
0.0012928
0.0012928
0.00131961
0.0012928
0.0012928
0.00132167
0.00129075
0.00131961
0.0012928
0.0012928
0.00129075
0.00128593
0.00125501
0.00128387
0.00128386
0.00125706
0.00125706
0.00128593
0.00125501
0.00128386
0.00128387
0.00125706
0.00125706
0.00128387
0.00125706
0.00125707
0.00128593
0.00125501
0.00128387
0.00125706
0.00125706
0.00125501
0.00125019
0.00121926
0.00124813
0.00124813
0.00122132
0.00122132
0.00125019
0.00121926
0.00124813
0.00124813
0.00122132
0.00122132
0.00124813
0.00122132
0.00122132
0.00125019
0.00121926
0.00124813
0.00122132
0.00122132
0.00121926
0.00121445
0.00118353
0.00121239
0.00121239
0.00118558
0.00118558
0.00121445
0.00118353
0.00121239
0.00121239
0.00118558
0.00118558
0.00121239
0.00118558
0.00118558
0.00121445
0.00118353
0.00121239
0.00118558
0.00118558
0.00118353
0.00117871
0.00114779
0.00117665
0.00117664
0.00114984
0.00114984
0.00117871
0.00114779
0.00117664
0.00117664
0.00114984
0.00114984
0.00117665
0.00114984
0.00114984
0.00117871
0.00114779
0.00117664
0.00114984
0.00114984
0.00114779
0.00114297
0.00111204
0.00114091
0.00114091
0.0011141
0.0011141
0.00114297
0.00111204
0.00114091
0.00114091
0.0011141
0.0011141
0.00114091
0.0011141
0.0011141
0.00114297
0.00111204
0.00114091
0.0011141
0.0011141
0.00111204
0.00110723
0.0010763
0.00110516
0.00110516
0.00107836
0.00107836
0.00110723
0.00107631
0.00110516
0.00110516
0.00107836
0.00107836
0.00110516
0.00107836
0.00107836
0.00110723
0.0010763
0.00110516
0.00107836
0.00107836
0.0010763
0.00107149
0.00104056
0.00106942
0.00106942
0.00104262
0.00104262
0.00107149
0.00104056
0.00106942
0.00106942
0.00104262
0.00104262
0.00106942
0.00104262
0.00104262
0.00107149
0.00104056
0.00106942
0.00104262
0.00104262
0.00104056
0.00103575
0.00100482
0.00103368
0.00103368
0.00100688
0.00100687
0.00103575
0.00100482
0.00103368
0.00103368
0.00100688
0.00100688
0.00103368
0.00100688
0.00100688
0.00103575
0.00100482
0.00103368
0.00100687
0.00100687
0.00100482
0.001
0.000969082
0.000997941
0.000997941
0.000971137
0.000971136
0.001
0.000969081
0.000997942
0.000997942
0.000971136
0.000971135
0.000997941
0.000971136
0.000971136
0.001
0.00096908
0.000997941
0.000971136
0.000971136
0.000969081
0.000964264
0.000933343
0.0009622
0.000962199
0.000935397
0.000935398
0.000964263
0.000933343
0.0009622
0.000962199
0.000935396
0.000935397
0.000962199
0.000935398
0.000935398
0.000964263
0.000933342
0.000962199
0.000935398
0.000935398
0.000933343
0.000928526
0.000897601
0.000926461
0.000926461
0.000899656
0.000899657
0.000928525
0.000897603
0.000926461
0.00092646
0.000899656
0.000899657
0.000926462
0.000899655
0.000899655
0.000928525
0.000897602
0.000926462
0.000899655
0.000899654
0.000897601
0.000892786
0.00086186
0.000890722
0.000890722
0.000863916
0.000863916
0.000892787
0.000861861
0.00089072
0.000890721
0.000863917
0.000863917
0.000890723
0.000863915
0.000863916
0.000892787
0.000861862
0.000890722
0.000863916
0.000863916
0.000861861
0.000857045
0.000826121
0.000854982
0.000854983
0.000828176
0.000828175
0.000857046
0.000826121
0.000854982
0.000854983
0.000828177
0.000828176
0.000854981
0.000828178
0.000828178
0.000857047
0.000826121
0.000854981
0.000828178
0.000828178
0.000826121
0.000821305
0.000790383
0.000819242
0.000819242
0.000792438
0.000792437
0.000821305
0.000790382
0.000819242
0.000819243
0.000792437
0.000792436
0.000819243
0.000792437
0.000792438
0.000821306
0.000790381
0.000819242
0.000792436
0.000792438
0.000790383
0.000785566
0.000754645
0.000783501
0.000783501
0.000756699
0.000756699
0.000785565
0.000754642
0.000783502
0.000783501
0.000756699
0.000756698
0.000783503
0.000756698
0.000756697
0.000785566
0.000754641
0.000783504
0.000756696
0.000756696
0.000754642
0.000749828
0.000718903
0.000747763
0.000747761
0.000720958
0.00072096
0.000749825
0.000718904
0.000747763
0.000747761
0.000720958
0.000720959
0.000747762
0.00072096
0.000720959
0.000749825
0.000718903
0.000747762
0.000720959
0.000720958
0.000718902
0.000714087
0.000683164
0.000712023
0.000712023
0.000685218
0.000685218
0.000714087
0.000683164
0.000712024
0.000712023
0.000685217
0.000685218
0.000712023
0.000685218
0.000685218
0.000714086
0.000683164
0.000712021
0.000685219
0.000685219
0.000683164
0.000678349
0.00064742
0.000676285
0.000676285
0.000649475
0.000649475
0.000678349
0.00064742
0.000676285
0.000676285
0.000649475
0.000649476
0.000676284
0.000649475
0.000649476
0.000678348
0.000647421
0.000676284
0.000649476
0.000649475
0.000647422
0.000642605
0.000611682
0.000640542
0.000640542
0.000613736
0.000613736
0.000642604
0.000611682
0.000640541
0.000640543
0.000613736
0.000613737
0.000640542
0.000613737
0.000613736
0.000642606
0.000611683
0.000640543
0.000613737
0.000613735
0.00061168
0.000606865
0.000575943
0.000604801
0.000604801
0.000577997
0.000577997
0.000606864
0.000575944
0.000604801
0.000604802
0.000577997
0.000577996
0.0006048
0.000577998
0.000577999
0.000606867
0.000575942
0.0006048
0.000577996
0.000577998
0.000575942
0.000571127
0.000540202
0.000569062
0.000569062
0.000542257
0.000542257
0.000571127
0.000540202
0.000569062
0.000569061
0.000542257
0.000542257
0.000569062
0.000542256
0.000542258
0.000571126
0.000540201
0.000569061
0.000542257
0.000542259
0.000540204
0.000535386
0.000504462
0.000533322
0.000533322
0.000506518
0.000506518
0.000535386
0.000504462
0.000533321
0.000533321
0.000506519
0.000506519
0.000533325
0.000506516
0.000506516
0.000535385
0.000504463
0.000533323
0.00050652
0.000506519
0.000504463
0.000499646
0.000468723
0.000497584
0.000497584
0.000470777
0.000470777
0.000499645
0.000468724
0.000497583
0.000497584
0.000470778
0.000470779
0.000497584
0.000470779
0.000470777
0.000499646
0.000468724
0.000497585
0.000470778
0.000470777
0.000468722
0.000463906
0.000432986
0.000461843
0.000461843
0.000435041
0.000435041
0.000463906
0.000432987
0.000461845
0.000461845
0.000435039
0.000435039
0.000461843
0.000435041
0.000435041
0.000463908
0.000432986
0.000461844
0.000435039
0.000435039
0.000432984
0.000428169
0.000397247
0.000426105
0.000426105
0.000399301
0.0003993
0.000428169
0.000397247
0.000426105
0.000426106
0.000399301
0.000399299
0.000426104
0.000399301
0.000399302
0.00042817
0.000397246
0.000426103
0.000399301
0.000399303
0.000397247
0.00039243
0.000361508
0.000390368
0.000390368
0.000363561
0.00036356
0.000392431
0.000361505
0.000390366
0.000390366
0.000363562
0.000363562
0.000390367
0.000363561
0.000363563
0.00039243
0.000361505
0.000390367
0.000363559
0.000363561
0.000361508
0.000356691
0.000325768
0.000354628
0.000354626
0.000327822
0.000327824
0.000356688
0.000325769
0.000354629
0.000354627
0.000327821
0.000327823
0.000354629
0.000327823
0.000327822
0.000356688
0.000325768
0.000354629
0.000327823
0.000327822
0.00032577
0.000320951
0.000290028
0.000318889
0.000318888
0.000292083
0.000292084
0.00032095
0.000290031
0.00031889
0.000318889
0.000292082
0.000292083
0.000318891
0.000292083
0.000292081
0.000320949
0.000290031
0.000318888
0.000292085
0.000292084
0.00029003
0.000285209
0.000254292
0.00028315
0.000283152
0.000256343
0.000256342
0.000285212
0.000254291
0.00028315
0.000283152
0.000256343
0.000256342
0.000283151
0.000256342
0.000256343
0.000285212
0.000254291
0.000283151
0.000256343
0.000256343
0.000254291
0.000249471
0.000218554
0.000247412
0.000247412
0.000220604
0.000220603
0.000249471
0.000218552
0.000247412
0.000247413
0.000220603
0.000220602
0.000247411
0.000220604
0.000220605
0.000249472
0.000218551
0.000247413
0.000220602
0.000220603
0.000218552
0.000213729
0.000182815
0.000211672
0.000211671
0.000184865
0.000184865
0.000213727
0.000182815
0.000211672
0.000211671
0.000184865
0.000184865
0.000211673
0.000184865
0.000184865
0.000213728
0.000182814
0.000211673
0.000184864
0.000184863
0.000182814
0.000177985
0.000147076
0.000175934
0.000175933
0.000149123
0.000149124
0.000177983
0.000147077
0.000175935
0.000175934
0.000149121
0.000149121
0.000175935
0.000149122
0.000149122
0.000177984
0.000147076
0.000175933
0.000149124
0.000149123
0.000147077
0.000142234
0.000111337
0.000140194
0.000140194
0.000113378
0.000113377
0.000142233
0.000111337
0.000140193
0.000140193
0.000113378
0.000113378
0.000140194
0.000113377
0.000113377
0.000142233
0.000111337
0.000140193
0.000113377
0.000113377
0.000111338
0.000106471
7.55936e-05
0.00010445
0.00010445
7.76272e-05
7.76264e-05
0.000106472
7.55937e-05
0.000104448
0.000104449
7.76278e-05
7.76269e-05
0.000104449
7.76271e-05
7.7626e-05
0.000106472
7.55919e-05
0.00010445
7.76251e-05
7.76251e-05
7.55924e-05
7.06925e-05
3.992e-05
6.87028e-05
6.87015e-05
4.19589e-05
4.19601e-05
7.06921e-05
3.99207e-05
6.87025e-05
6.87015e-05
4.19569e-05
4.19562e-05
6.87007e-05
4.19591e-05
4.19565e-05
7.06918e-05
3.99168e-05
6.87006e-05
4.19566e-05
4.19551e-05
3.99167e-05
3.50641e-05
7.94119e-06
3.3254e-05
3.32534e-05
1.07748e-05
1.07746e-05
3.50635e-05
7.94167e-06
3.32524e-05
3.32499e-05
1.07751e-05
1.07696e-05
3.32482e-05
1.07755e-05
1.07691e-05
3.50603e-05
7.93851e-06
3.32472e-05
1.07741e-05
1.0774e-05
7.93757e-06
4.85352e-06
6.15494e-06
6.15389e-06
4.85461e-06
6.15286e-06
6.15043e-06
5.68801e-06
5.68694e-06
5.68668e-06
6.15055e-06
4.85257e-06
6.153e-06
0.00354258
0.00354538
0.0035442
0.00354419
0.00356995
0.00354582
0.00357448
0.00354562
0.00356992
0.0035459
0.00354568
0.00357454
0.00355634
0.00357775
0.00357775
0.0035145
0.00352845
0.00353219
0.00350687
0.00350598
0.0035103
0.00351455
0.0035284
0.00353222
0.0035068
0.00353064
0.00353062
0.00353064
0.00350379
0.00350377
0.00350375
0.00350375
0.0035142
0.0035262
0.0035312
0.00352173
0.0035334
0.00351136
0.00352194
0.00350524
0.00351034
0.00351414
0.00353117
0.00352624
0.00352162
0.00353333
0.00352189
0.00351134
0.00353219
0.00353223
0.00351893
0.00351128
0.00351122
0.00348742
0.00350126
0.00350098
0.00348536
0.00349856
0.00348443
0.00348736
0.00350122
0.00350106
0.00348532
0.00349484
0.0034948
0.00349481
0.00346725
0.00346725
0.00346721
0.00346724
0.00348501
0.00349985
0.00349347
0.00348423
0.00349832
0.00348566
0.00348429
0.00349852
0.00348431
0.00348498
0.00349349
0.00349994
0.00348422
0.00349832
0.0034843
0.00348556
0.00350155
0.00350154
0.00348284
0.003486
0.00348602
0.00344525
0.00345978
0.00346063
0.00344387
0.00345858
0.00344308
0.00344528
0.00345975
0.00346059
0.00344389
0.00345731
0.00345725
0.0034573
0.00342462
0.00342461
0.00342458
0.0034246
0.00344387
0.00345943
0.00345545
0.00344508
0.00345844
0.00344437
0.00344511
0.00345864
0.00344295
0.00344383
0.00345546
0.00345948
0.00344515
0.00345847
0.00344514
0.00344428
0.00346007
0.00346008
0.00344243
0.00344414
0.00344417
0.00339865
0.00341517
0.00341664
0.00339715
0.00341448
0.00339657
0.00339859
0.00341515
0.00341668
0.00339717
0.00341289
0.00341286
0.00341289
0.00337669
0.00337668
0.00337665
0.00337667
0.00339763
0.00341504
0.00341129
0.00339945
0.00341444
0.00339781
0.0033994
0.00341446
0.00339665
0.00339759
0.00341133
0.00341496
0.0033995
0.00341446
0.00339941
0.00339801
0.00341523
0.00341527
0.00339625
0.00339732
0.00339733
0.00334951
0.00336662
0.00336796
0.00334835
0.00336626
0.00334802
0.00334957
0.00336661
0.00336794
0.00334838
0.0033645
0.00336447
0.00336449
0.00332816
0.00332814
0.00332811
0.00332813
0.00334903
0.00336662
0.00336302
0.00335092
0.00336631
0.00334903
0.0033509
0.00336626
0.00334804
0.00334902
0.00336307
0.00336682
0.00335107
0.00336632
0.00335096
0.00334889
0.00336667
0.00336668
0.00334773
0.00334846
0.00334848
0.00330074
0.00331795
0.00331896
0.00329994
0.00331771
0.00329968
0.00330067
0.00331797
0.00331902
0.0032999
0.00331609
0.00331606
0.00331608
0.00328009
0.00328007
0.00328006
0.00328008
0.00330066
0.00331798
0.00331476
0.00330268
0.00331782
0.00330059