/*--------------------------------*- C++ -*----------------------------------*\
| =========                 |                                                 |
| \\      /  F ield         | OpenFOAM: The Open Source CFD Toolbox           |
|  \\    /   O peration     | Version:  v1906                                 |
|   \\  /    A nd           | Web:      www.OpenFOAM.com                      |
|    \\/     M anipulation  |                                                 |
\*---------------------------------------------------------------------------*/
FoamFile
{
    version     2.0;
    format      ascii;
    class       volScalarField;
    location    "300";
    object      epsilon;
}
// * * * * * * * * * * * * * * * * * * * * * * * * * * * * * * * * * * * * * //

dimensions      [0 2 -3 0 0 0 0];


internalField   nonuniform List<scalar> 
171728
(
3.92351e-09
4.88535e-09
3.72574e-09
5.02019e-09
3.89341e-09
4.44385e-09
3.55747e-09
4.6621e-09
3.86187e-09
4.03974e-09
3.39124e-09
4.34506e-09
3.83567e-09
3.68141e-09
3.26326e-09
3.8945e-09
3.81274e-09
3.37549e-09
3.15737e-09
3.50879e-09
3.79141e-09
3.124e-09
3.08787e-09
3.14661e-09
3.77358e-09
2.91652e-09
3.07735e-09
2.92522e-09
3.76289e-09
2.75538e-09
3.12383e-09
2.72853e-09
3.76076e-09
2.63279e-09
3.20968e-09
2.56813e-09
3.76513e-09
2.54594e-09
3.27088e-09
2.45698e-09
3.77554e-09
2.50265e-09
3.31122e-09
2.37862e-09
3.79428e-09
2.5015e-09
3.38147e-09
2.33679e-09
3.81543e-09
2.54836e-09
3.46231e-09
2.33812e-09
3.84352e-09
2.65785e-09
3.51179e-09
2.39187e-09
3.87697e-09
2.85007e-09
3.56038e-09
2.51815e-09
3.91514e-09
3.16535e-09
3.69335e-09
2.78197e-09
3.9596e-09
3.65435e-09
4.11245e-09
3.2044e-09
4.01207e-09
4.4153e-09
4.72288e-09
4.01386e-09
4.07163e-09
5.60963e-09
5.66568e-09
5.3261e-09
4.14233e-09
7.22301e-09
7.23247e-09
7.5985e-09
4.22481e-09
9.69844e-09
9.56146e-09
1.16406e-08
4.32991e-09
1.32771e-08
1.26665e-08
1.86428e-08
4.45249e-09
1.87381e-08
1.81418e-08
2.9325e-08
4.62171e-09
2.48258e-08
2.43026e-08
4.94981e-08
4.8356e-09
3.30397e-08
3.31944e-08
7.55215e-08
5.10478e-09
4.87577e-08
4.5501e-08
1.07455e-07
5.51134e-09
5.54274e-08
5.91873e-08
1.70782e-07
5.92039e-09
7.90819e-08
7.72403e-08
2.21682e-07
6.69559e-09
9.54228e-08
1.00848e-07
2.92816e-07
7.50298e-09
1.2001e-07
1.19813e-07
3.84435e-07
8.70196e-09
1.44761e-07
1.53221e-07
4.46521e-07
9.88279e-09
1.74726e-07
1.78794e-07
5.31528e-07
1.2179e-08
2.09718e-07
2.0348e-07
5.92053e-07
1.41176e-08
2.42392e-07
2.54633e-07
6.62968e-07
1.74311e-08
2.77222e-07
2.82286e-07
7.18467e-07
2.05247e-08
3.47043e-07
3.26509e-07
7.74872e-07
2.59011e-08
3.67501e-07
3.61295e-07
8.04652e-07
3.01114e-08
4.06185e-07
4.19713e-07
8.59263e-07
3.84836e-08
4.61316e-07
4.60521e-07
8.95458e-07
4.50389e-08
5.07835e-07
5.08327e-07
9.24915e-07
5.5159e-08
5.5907e-07
5.59922e-07
9.62868e-07
6.58078e-08
5.97809e-07
5.99424e-07
9.8874e-07
7.83874e-08
6.69271e-07
6.56991e-07
1.0286e-06
9.68166e-08
7.00901e-07
7.0922e-07
1.05108e-06
1.06311e-07
7.35322e-07
7.37258e-07
1.07274e-06
1.31395e-07
7.98538e-07
7.99685e-07
1.11533e-06
1.48922e-07
8.30954e-07
8.32177e-07
1.13492e-06
1.71508e-07
8.74676e-07
8.6914e-07
1.1591e-06
1.90567e-07
9.06109e-07
9.11255e-07
1.18552e-06
2.24156e-07
9.46545e-07
9.40726e-07
1.20947e-06
2.47282e-07
9.76963e-07
9.79467e-07
1.2328e-06
2.78023e-07
1.00691e-06
1.00034e-06
1.25202e-06
3.06765e-07
1.03204e-06
1.03902e-06
1.27859e-06
3.38656e-07
1.06106e-06
1.05466e-06
1.29309e-06
3.68311e-07
1.0742e-06
1.08175e-06
1.31287e-06
3.98142e-07
1.10685e-06
1.09818e-06
1.33049e-06
4.24036e-07
1.11916e-06
1.12452e-06
1.34593e-06
4.54973e-07
1.13379e-06
1.13704e-06
1.35963e-06
4.82633e-07
1.15357e-06
1.15417e-06
1.37017e-06
5.04964e-07
1.16375e-06
1.16731e-06
1.38518e-06
5.31657e-07
1.18428e-06
1.18277e-06
1.39433e-06
5.5309e-07
1.18845e-06
1.18679e-06
1.39856e-06
5.69014e-07
1.19609e-06
1.197e-06
1.4039e-06
6.0355e-07
1.22301e-06
1.22369e-06
1.44243e-06
6.11452e-07
1.2085e-06
1.20828e-06
1.42538e-06
5.95256e-07
1.16499e-06
1.16462e-06
1.36695e-06
5.8698e-07
1.15269e-06
1.15243e-06
1.34926e-06
6.24622e-07
1.20911e-06
1.20893e-06
1.42397e-06
6.87227e-07
1.27096e-06
1.27083e-06
1.5034e-06
7.21871e-07
1.30989e-06
1.30981e-06
1.55369e-06
7.27676e-07
1.3126e-06
1.3126e-06
1.55619e-06
6.86142e-07
1.2384e-06
1.23847e-06
1.46173e-06
6.24843e-07
1.15171e-06
1.15177e-06
1.34841e-06
5.91887e-07
1.10902e-06
1.10907e-06
1.29722e-06
5.92796e-07
1.11054e-06
1.11058e-06
1.31169e-06
6.32062e-07
1.13983e-06
1.13987e-06
1.35402e-06
6.57452e-07
1.15945e-06
1.15951e-06
1.38666e-06
6.65388e-07
1.16861e-06
1.16868e-06
1.40571e-06
6.66776e-07
1.17177e-06
1.17184e-06
1.41482e-06
6.66778e-07
1.1727e-06
1.17277e-06
1.41859e-06
6.665e-07
1.17277e-06
1.17284e-06
1.41994e-06
6.66166e-07
1.17261e-06
1.17268e-06
1.42015e-06
6.66072e-07
1.17257e-06
1.17264e-06
1.42e-06
6.66101e-07
1.17266e-06
1.17274e-06
1.42043e-06
6.6604e-07
1.17256e-06
1.17263e-06
1.42012e-06
6.66058e-07
1.17261e-06
1.17269e-06
1.42026e-06
6.66053e-07
1.17261e-06
1.17268e-06
1.4203e-06
6.66046e-07
1.17259e-06
1.17267e-06
1.42011e-06
6.66051e-07
1.17262e-06
1.17269e-06
1.42036e-06
6.66051e-07
1.17261e-06
1.17268e-06
1.42012e-06
6.66056e-07
1.17264e-06
1.17271e-06
1.42031e-06
6.66061e-07
1.17265e-06
1.17272e-06
1.42011e-06
6.66061e-07
1.17269e-06
1.17276e-06
1.42031e-06
6.65811e-07
1.1724e-06
1.17246e-06
1.4198e-06
6.47404e-07
1.1164e-06
1.11639e-06
1.37826e-06
5.14985e-09
4.42978e-09
4.15172e-09
4.79754e-09
4.28815e-09
4.32325e-09
3.92122e-09
3.91657e-09
3.92599e-09
3.96824e-09
4.23916e-09
5.04844e-09
5.09989e-09
3.66551e-09
4.29257e-09
5.08148e-09
5.12498e-09
4.68755e-09
4.76902e-09
4.46485e-09
4.44717e-09
4.18409e-09
4.77038e-09
4.36623e-09
4.63641e-09
4.79134e-09
4.33444e-09
4.46409e-09
9.24192e-09
4.55467e-09
8.67828e-09
5.07878e-09
4.61144e-09
4.75851e-09
3.60277e-09
4.39881e-09
4.72648e-09
4.65519e-09
4.25724e-09
4.33876e-09
4.09032e-09
4.03894e-09
3.82859e-09
4.33371e-09
3.98031e-09
4.23241e-09
4.35362e-09
3.94758e-09
4.04765e-09
8.42212e-09
4.13532e-09
7.42052e-09
4.5794e-09
4.16117e-09
4.28766e-09
3.42993e-09
3.98823e-09
4.42271e-09
4.22914e-09
3.88457e-09
3.94645e-09
3.74783e-09
3.68949e-09
3.52164e-09
3.9526e-09
3.6509e-09
3.85946e-09
3.95373e-09
3.6147e-09
3.69242e-09
6.96972e-09
3.7667e-09
5.40629e-09
4.13395e-09
3.7844e-09
3.89911e-09
3.29166e-09
3.65609e-09
3.92724e-09
3.86014e-09
3.55926e-09
3.61007e-09
3.45179e-09
3.3892e-09
3.25769e-09
3.62737e-09
3.36498e-09
3.53853e-09
3.61228e-09
3.32816e-09
3.38887e-09
4.89019e-09
3.44612e-09
3.64451e-09
3.76075e-09
3.46986e-09
3.58074e-09
3.18211e-09
3.36775e-09
3.5405e-09
3.53805e-09
3.27659e-09
3.32112e-09
3.19791e-09
3.13588e-09
3.03271e-09
3.34463e-09
3.11623e-09
3.26342e-09
3.32098e-09
3.08666e-09
3.13308e-09
3.35345e-09
3.18209e-09
2.76707e-09
3.44952e-09
3.19656e-09
3.30151e-09
3.10138e-09
3.1168e-09
3.16392e-09
3.25917e-09
3.03419e-09
3.0796e-09
2.98219e-09
2.92879e-09
2.84601e-09
3.09965e-09
2.90341e-09
3.03302e-09
3.07657e-09
2.88784e-09
2.92381e-09
2.63885e-09
2.96458e-09
2.38533e-09
3.17984e-09
2.98514e-09
3.06005e-09
3.07626e-09
2.90649e-09
2.93454e-09
3.02059e-09
2.82896e-09
2.88322e-09
2.80557e-09
2.76506e-09
2.69796e-09
2.89055e-09
2.72473e-09
2.84445e-09
2.87824e-09
2.73088e-09
2.75799e-09
2.33346e-09
2.79201e-09
2.24078e-09
2.97289e-09
2.8189e-09
2.86066e-09
3.10435e-09
2.73794e-09
2.73584e-09
2.81936e-09
2.6635e-09
2.7303e-09
2.66755e-09
2.64283e-09
2.58781e-09
2.71577e-09
2.58118e-09
2.69725e-09
2.72277e-09
2.61384e-09
2.63614e-09
2.22577e-09
2.66077e-09
2.20527e-09
2.81111e-09
2.6965e-09
2.70299e-09
3.18871e-09
2.617e-09
2.57132e-09
2.65788e-09
2.53223e-09
2.6172e-09
2.56605e-09
2.55739e-09
2.5132e-09
2.57628e-09
2.46622e-09
2.59055e-09
2.61205e-09
2.53351e-09
2.55703e-09
2.19915e-09
2.5628e-09
2.18814e-09
2.69253e-09
2.6052e-09
2.59237e-09
3.25954e-09
2.53596e-09
2.45602e-09
2.53066e-09
2.43538e-09
2.54149e-09
2.49941e-09
2.51197e-09
2.47242e-09
2.46539e-09
2.38049e-09
2.5193e-09
2.54248e-09
2.49178e-09
2.51592e-09
2.18886e-09
2.5083e-09
2.204e-09
2.60397e-09
2.52846e-09
2.52198e-09
3.29788e-09
2.49413e-09
2.37439e-09
2.43827e-09
2.37588e-09
2.50532e-09
2.46795e-09
2.5072e-09
2.47383e-09
2.38345e-09
2.32718e-09
2.48988e-09
2.51042e-09
2.49107e-09
2.51478e-09
2.2138e-09
2.49803e-09
2.25547e-09
2.53096e-09
2.50676e-09
2.48873e-09
3.36157e-09
2.48927e-09
2.32667e-09
2.38447e-09
2.35914e-09
2.51281e-09
2.48076e-09
2.55095e-09
2.52049e-09
2.33598e-09
2.31324e-09
2.49538e-09
2.52165e-09
2.53179e-09
2.55981e-09
2.27435e-09
2.53195e-09
2.34841e-09
2.5196e-09
2.52789e-09
2.4942e-09
3.44383e-09
2.53058e-09
2.31857e-09
2.37713e-09
2.39278e-09
2.56888e-09
2.54092e-09
2.6503e-09
2.62618e-09
2.33173e-09
2.34913e-09
2.55466e-09
2.57974e-09
2.64656e-09
2.66091e-09
2.37836e-09
2.6246e-09
2.49274e-09
2.54771e-09
2.56676e-09
2.5485e-09
3.50581e-09
2.62813e-09
2.35803e-09
2.4254e-09
2.49672e-09
2.68475e-09
2.66295e-09
2.82512e-09
2.80972e-09
2.38059e-09
2.45443e-09
2.68313e-09
2.69738e-09
2.81847e-09
2.83921e-09
2.53863e-09
2.79114e-09
2.71567e-09
2.59521e-09
2.64141e-09
2.66326e-09
3.53329e-09
2.80225e-09
2.46276e-09
2.55283e-09
2.70315e-09
2.88261e-09
2.87121e-09
3.10919e-09
3.09599e-09
2.51033e-09
2.6583e-09
2.87468e-09
2.89677e-09
3.09815e-09
3.11046e-09
2.78757e-09
3.06662e-09
3.03892e-09
2.68919e-09
2.79102e-09
2.86256e-09
3.62936e-09
3.08958e-09
2.68802e-09
2.80125e-09
3.07368e-09
3.20639e-09
3.19767e-09
3.55694e-09
3.54747e-09
2.75913e-09
3.04646e-09
3.19433e-09
3.206e-09
3.54138e-09
3.5562e-09
3.13505e-09
3.51022e-09
3.4966e-09
2.87304e-09
3.14375e-09
3.18199e-09
3.97961e-09
3.50813e-09
3.04775e-09
3.24417e-09
3.72685e-09
3.70877e-09
3.69904e-09
4.24663e-09
4.26807e-09
3.19677e-09
3.73395e-09
3.69621e-09
3.70161e-09
4.21601e-09
4.25026e-09
3.65074e-09
4.2064e-09
4.22385e-09
3.30375e-09
3.78681e-09
3.64601e-09
4.55655e-09
4.2229e-09
3.75521e-09
3.98351e-09
4.92679e-09
4.47273e-09
4.47892e-09
5.2909e-09
5.2962e-09
3.99324e-09
4.86651e-09
4.4401e-09
4.48531e-09
5.26103e-09
5.24438e-09
4.43792e-09
5.23673e-09
5.28696e-09
4.05038e-09
4.80626e-09
4.44222e-09
5.33778e-09
5.23692e-09
4.88293e-09
5.31134e-09
6.92777e-09
5.58834e-09
5.6753e-09
6.89385e-09
6.82705e-09
5.38218e-09
6.82673e-09
5.56686e-09
5.60392e-09
6.84005e-09
6.86044e-09
5.63985e-09
6.735e-09
6.82912e-09
5.24875e-09
6.9823e-09
5.57698e-09
6.81181e-09
6.77863e-09
6.91102e-09
7.89712e-09
1.02948e-08
7.46503e-09
7.315e-09
9.05996e-09
9.16692e-09
7.49484e-09
1.06316e-08
7.40799e-09
7.32301e-09
9.01945e-09
9.10665e-09
7.32284e-09
9.08015e-09
9.13644e-09
7.61445e-09
1.03856e-08
7.24804e-09
8.85349e-09
9.0281e-09
1.04916e-08
1.13203e-08
1.62773e-08
9.81729e-09
9.80736e-09
1.21509e-08
1.24291e-08
1.1706e-08
1.66156e-08
9.75242e-09
9.79339e-09
1.21569e-08
1.23841e-08
9.83545e-09
1.23216e-08
1.24561e-08
1.15326e-08
1.64447e-08
9.7379e-09
1.17617e-08
1.23278e-08
1.67182e-08
1.77231e-08
2.89382e-08
1.32342e-08
1.34095e-08
1.73205e-08
1.72927e-08
1.89097e-08
2.71432e-08
1.3193e-08
1.31871e-08
1.72625e-08
1.73205e-08
1.34481e-08
1.71445e-08
1.69096e-08
1.80789e-08
2.74394e-08
1.33128e-08
1.66999e-08
1.66741e-08
2.65901e-08
3.16076e-08
4.10588e-08
1.83353e-08
1.88249e-08
2.30013e-08
2.2764e-08
3.08778e-08
4.23141e-08
1.83365e-08
1.87833e-08
2.30141e-08
2.29236e-08
1.82923e-08
2.25285e-08
2.34206e-08
3.16774e-08
4.12009e-08
1.80432e-08
2.21555e-08
2.32278e-08
4.47974e-08
4.68083e-08
6.99942e-08
2.52723e-08
2.51256e-08
3.15705e-08
3.17255e-08
4.5721e-08
7.30274e-08
2.53252e-08
2.49631e-08
3.13914e-08
3.18749e-08
2.51304e-08
3.15682e-08
3.19669e-08
4.51145e-08
7.0669e-08
2.48224e-08
3.10055e-08
3.16814e-08
6.74054e-08
7.45354e-08
1.06864e-07
3.4038e-08
3.3259e-08
4.23471e-08
4.50422e-08
7.7283e-08
1.14206e-07
3.4068e-08
3.41574e-08
4.19976e-08
4.19724e-08
3.44082e-08
4.47054e-08
4.15861e-08
7.62989e-08
1.01682e-07
3.42551e-08
4.20402e-08
4.1228e-08
1.00927e-07
1.146e-07
1.50078e-07
4.50268e-08
4.91322e-08
5.6066e-08
5.38704e-08
1.32135e-07
1.4745e-07
4.47572e-08
4.56352e-08
5.52555e-08
5.5499e-08
4.55306e-08
5.34912e-08
5.69177e-08
1.1114e-07
1.52527e-07
4.51166e-08
5.4962e-08
5.59706e-08
1.60849e-07
1.65127e-07
2.12579e-07
6.06668e-08
5.57986e-08
7.1584e-08
7.40048e-08
1.48682e-07
2.19723e-07
5.93281e-08
5.85999e-08
7.27098e-08
7.2634e-08
5.94978e-08
7.36097e-08
7.2684e-08
1.61769e-07
2.08832e-07
5.87989e-08
7.26243e-08
7.18255e-08
2.03878e-07
2.20812e-07
2.71353e-07
7.44257e-08
7.90095e-08
9.02502e-08
9.08656e-08
2.45794e-07
2.87257e-07
7.58578e-08
7.71907e-08
8.88158e-08
9.22545e-08
7.76795e-08
8.97379e-08
9.06348e-08
2.22699e-07
2.91901e-07
7.68633e-08
9.51553e-08
8.99926e-08
2.8256e-07
2.89188e-07
3.71943e-07
9.78566e-08
9.63857e-08
1.15495e-07
1.15356e-07
2.96146e-07
3.66753e-07
9.64115e-08
9.8541e-08
1.14915e-07
1.12909e-07
9.61821e-08
1.15586e-07
1.1638e-07
3.06398e-07
3.54072e-07
9.54361e-08
1.14139e-07
1.15568e-07
3.66937e-07
3.87769e-07
4.3087e-07
1.19576e-07
1.2049e-07
1.40297e-07
1.36847e-07
3.83218e-07
4.31415e-07
1.19238e-07
1.16498e-07
1.40317e-07
1.39397e-07
1.22176e-07
1.35779e-07
1.36183e-07
3.69083e-07
4.30106e-07
1.21258e-07
1.44226e-07
1.35398e-07
4.32106e-07
4.47991e-07
5.14293e-07
1.4945e-07
1.44979e-07
1.66138e-07
1.68913e-07
4.47759e-07
5.12972e-07
1.48546e-07
1.50539e-07
1.64543e-07
1.71584e-07
1.43332e-07
1.69576e-07
1.71951e-07
4.54974e-07
5.26335e-07
1.42528e-07
1.74451e-07
1.71039e-07
5.1304e-07
5.25383e-07
5.7759e-07
1.70921e-07
1.74507e-07
2.00935e-07
1.99342e-07
5.29004e-07
5.85049e-07
1.69499e-07
1.74946e-07
1.992e-07
1.91798e-07
1.78863e-07
1.97506e-07
1.96718e-07
5.34589e-07
5.58052e-07
1.78101e-07
1.9383e-07
1.94573e-07
5.78389e-07
5.98369e-07
6.54958e-07
2.13358e-07
2.11918e-07
2.35787e-07
2.39204e-07
6.0308e-07
6.42408e-07
2.11965e-07
2.02634e-07
2.36897e-07
2.39934e-07
2.06696e-07
2.37678e-07
2.39343e-07
5.75601e-07
6.61554e-07
2.03836e-07
2.4313e-07
2.39399e-07
6.47623e-07
6.65674e-07
6.98333e-07
2.41229e-07
2.4359e-07
2.72265e-07
2.62871e-07
6.52717e-07
6.87396e-07
2.42725e-07
2.49183e-07
2.72803e-07
2.69559e-07
2.46134e-07
2.62797e-07
2.69163e-07
6.74872e-07
7.03925e-07
2.47507e-07
2.76207e-07
2.68654e-07
7.03161e-07
7.13214e-07
7.56286e-07
2.8534e-07
2.7691e-07
3.11917e-07
3.36183e-07
7.05128e-07
7.86083e-07
2.84657e-07
2.78443e-07
3.08824e-07
3.16217e-07
2.82932e-07
3.34696e-07
3.25271e-07
7.15932e-07
7.56116e-07
2.8044e-07
3.13705e-07
3.22399e-07
7.64787e-07
7.67706e-07
8.04229e-07
3.20766e-07
3.49245e-07
3.59953e-07
3.66168e-07
7.97392e-07
8.03597e-07
3.17893e-07
3.28059e-07
3.59931e-07
3.52048e-07
3.33564e-07
3.63714e-07
3.49821e-07
7.68437e-07
8.00226e-07
3.31541e-07
3.53495e-07
3.49228e-07
7.94688e-07
8.16254e-07
8.42104e-07
3.71581e-07
3.69854e-07
3.97259e-07
3.9156e-07
8.09458e-07
8.37123e-07
3.72433e-07
3.60546e-07
3.96952e-07
4.05449e-07
3.56767e-07
3.91124e-07
3.99165e-07
8.11244e-07
8.46538e-07
3.56793e-07
4.02928e-07
4.01073e-07
8.44554e-07
8.52062e-07
8.85152e-07
4.08725e-07
4.0547e-07
4.54668e-07
4.54722e-07
8.51138e-07
8.86693e-07
4.06054e-07
4.21541e-07
4.48939e-07
4.51371e-07
4.18381e-07
4.52396e-07
4.53986e-07
8.58887e-07
8.84792e-07
4.18918e-07
4.51826e-07
4.52435e-07
8.87988e-07
8.95266e-07
9.17398e-07
4.67729e-07
4.65e-07
4.93144e-07
4.91885e-07
8.95562e-07
9.1861e-07
4.64568e-07
4.60119e-07
4.96703e-07
4.97273e-07
4.64275e-07
4.91768e-07
4.96013e-07
8.9293e-07
9.19157e-07
4.6324e-07
4.97018e-07
4.94146e-07
9.15442e-07
9.26501e-07
9.52963e-07
5.02484e-07
5.05884e-07
5.46855e-07
5.50464e-07
9.28685e-07
9.50168e-07
5.05436e-07
5.08753e-07
5.44882e-07
5.46877e-07
5.05794e-07
5.50483e-07
5.44707e-07
9.3004e-07
9.55105e-07
5.03837e-07
5.45697e-07
5.44031e-07
9.54322e-07
9.61017e-07
9.79684e-07
5.62009e-07
5.60151e-07
5.92773e-07
5.85386e-07
9.56735e-07
9.78435e-07
5.5974e-07
5.61298e-07
5.92065e-07
5.93042e-07
5.59968e-07
5.8394e-07
5.95714e-07
9.62386e-07
9.78129e-07
5.59733e-07
5.91597e-07
5.97059e-07
9.80806e-07
9.88497e-07
1.02003e-06
6.01334e-07
5.98645e-07
6.42674e-07
6.54424e-07
9.90848e-07
1.02719e-06
6.007e-07
6.00762e-07
6.41156e-07
6.3867e-07
6.04266e-07
6.54482e-07
6.40291e-07
9.85741e-07
1.01931e-06
6.0578e-07
6.38205e-07
6.39374e-07
1.01894e-06
1.02898e-06
1.04395e-06
6.60345e-07
6.69544e-07
6.97648e-07
6.96258e-07
1.034e-06
1.04081e-06
6.58758e-07
6.57221e-07
6.97449e-07
7.01008e-07
6.57438e-07
6.9511e-07
6.99357e-07
1.03044e-06
1.04819e-06
6.5584e-07
7.00862e-07
6.98328e-07
1.0461e-06
1.04917e-06
1.06604e-06
7.04701e-07
7.02314e-07
7.26502e-07
7.24501e-07
1.04576e-06
1.06506e-06
7.04846e-07
7.09388e-07
7.25894e-07
7.28863e-07
7.07686e-07
7.23164e-07
7.27692e-07
1.05259e-06
1.06526e-06
7.06906e-07
7.2839e-07
7.26765e-07
1.06467e-06
1.07486e-06
1.10804e-06
7.38745e-07
7.36064e-07
7.88529e-07
7.84521e-07
1.07465e-06
1.1071e-06
7.3744e-07
7.38053e-07
7.87285e-07
7.84672e-07
7.3731e-07
7.84889e-07
7.83516e-07
1.07327e-06
1.10679e-06
7.3633e-07
7.83433e-07
7.84037e-07
1.10649e-06
1.11571e-06
1.12803e-06
8.00725e-07
7.99106e-07
8.21922e-07
8.26498e-07
1.11481e-06
1.12938e-06
7.99989e-07
7.99881e-07
8.22512e-07
8.24387e-07
7.98294e-07
8.24507e-07
8.26359e-07
1.11599e-06
1.12982e-06
7.99263e-07
8.25943e-07
8.25374e-07
1.13002e-06
1.13342e-06
1.15483e-06
8.29651e-07
8.32179e-07
8.64707e-07
8.59725e-07
1.13461e-06
1.15124e-06
8.3119e-07
8.32292e-07
8.64642e-07
8.61877e-07
8.33603e-07
8.61854e-07
8.6035e-07
1.13436e-06
1.15171e-06
8.32147e-07
8.59119e-07
8.60616e-07
1.1517e-06
1.16175e-06
1.17494e-06
8.7453e-07
8.73075e-07
8.95213e-07
8.99296e-07
1.15937e-06
1.17992e-06
8.72518e-07
8.70551e-07
8.93221e-07
8.99403e-07
8.70794e-07
9.00278e-07
9.00845e-07
1.15923e-06
1.1783e-06
8.7137e-07
9.01296e-07
8.99657e-07
1.17943e-06
1.18096e-06
1.20849e-06
9.0488e-07
9.05634e-07
9.41069e-07
9.37835e-07
1.18469e-06
1.2022e-06
9.04262e-07
9.10341e-07
9.41948e-07
9.35585e-07
9.09492e-07
9.34694e-07
9.34699e-07
1.18495e-06
1.20362e-06
9.08133e-07
9.32765e-07
9.35311e-07
1.20282e-06
1.21532e-06
1.22507e-06
9.49744e-07
9.49272e-07
9.65066e-07
9.68091e-07
1.21093e-06
1.22934e-06
9.50325e-07
9.42878e-07
9.65376e-07
9.70495e-07
9.44013e-07
9.71174e-07
9.69469e-07
1.20916e-06
1.22707e-06
9.4491e-07
9.71511e-07
9.69046e-07
1.22755e-06
1.22933e-06
1.25061e-06
9.71661e-07
9.7307e-07
1.00136e-06
9.99912e-07
1.23355e-06
1.24818e-06
9.72014e-07
9.78656e-07
1.00051e-06
9.94466e-07
9.76121e-07
9.98959e-07
9.95975e-07
1.23388e-06
1.24645e-06
9.75341e-07
9.93813e-07
9.95263e-07
1.24601e-06
1.25764e-06
1.26964e-06
1.00903e-06
1.00902e-06
1.02399e-06
1.02422e-06
1.25515e-06
1.2692e-06
1.00874e-06
1.00143e-06
1.02688e-06
1.03057e-06
1.00409e-06
1.02566e-06
1.0289e-06
1.25101e-06
1.27346e-06
1.00358e-06
1.03101e-06
1.02936e-06
1.27281e-06
1.27401e-06
1.29069e-06
1.03046e-06
1.02917e-06
1.05468e-06
1.05493e-06
1.27359e-06
1.29118e-06
1.03289e-06
1.03761e-06
1.05352e-06
1.04914e-06
1.03548e-06
1.05523e-06
1.05162e-06
1.28025e-06
1.28873e-06
1.03605e-06
1.0507e-06
1.05151e-06
1.28886e-06
1.29661e-06
1.30801e-06
1.06088e-06
1.06297e-06
1.07384e-06
1.07412e-06
1.29739e-06
1.30485e-06
1.06014e-06
1.05438e-06
1.07742e-06
1.07757e-06
1.05679e-06
1.07012e-06
1.07366e-06
1.2921e-06
1.30796e-06
1.05669e-06
1.07526e-06
1.07507e-06
1.30725e-06
1.31229e-06
1.3247e-06
1.07928e-06
1.07688e-06
1.0983e-06
1.09639e-06
1.30775e-06
1.32379e-06
1.08274e-06
1.08349e-06
1.09565e-06
1.09388e-06
1.08046e-06
1.09882e-06
1.09905e-06
1.31398e-06
1.32187e-06
1.08187e-06
1.09394e-06
1.09731e-06
1.32634e-06
1.32897e-06
1.33645e-06
1.10289e-06
1.10473e-06
1.11378e-06
1.11844e-06
1.33148e-06
1.34222e-06
1.09879e-06
1.09795e-06
1.11256e-06
1.11762e-06
1.10318e-06
1.11746e-06
1.11776e-06
1.32536e-06
1.34145e-06
1.1006e-06
1.11776e-06
1.11658e-06
1.34047e-06
1.34094e-06
1.35563e-06
1.11879e-06
1.12142e-06
1.13472e-06
1.13382e-06
1.34474e-06
1.35087e-06
1.1194e-06
1.12447e-06
1.13649e-06
1.13604e-06
1.12407e-06
1.12906e-06
1.13582e-06
1.34779e-06
1.35674e-06
1.12403e-06
1.13546e-06
1.13777e-06
1.35721e-06
1.36019e-06
1.36878e-06
1.13909e-06
1.13821e-06
1.15206e-06
1.14891e-06
1.35548e-06
1.36604e-06
1.14021e-06
1.13805e-06
1.15111e-06
1.14976e-06
1.13746e-06
1.14925e-06
1.1487e-06
1.359e-06
1.36512e-06
1.13928e-06
1.14805e-06
1.14858e-06
1.36457e-06
1.37258e-06
1.37738e-06
1.15592e-06
1.15181e-06
1.1634e-06
1.16029e-06
1.36971e-06
1.375e-06
1.15431e-06
1.15493e-06
1.16011e-06
1.16355e-06
1.15547e-06
1.161e-06
1.16762e-06
1.37043e-06
1.3801e-06
1.15484e-06
1.16536e-06
1.16759e-06
1.38299e-06
1.38035e-06
1.3919e-06
1.16639e-06
1.16434e-06
1.1809e-06
1.18022e-06
1.37866e-06
1.39312e-06
1.16266e-06
1.16568e-06
1.178e-06
1.17823e-06
1.16876e-06
1.17927e-06
1.17747e-06
1.38281e-06
1.39122e-06
1.16889e-06
1.1786e-06
1.17774e-06
1.3895e-06
1.39659e-06
1.3954e-06
1.18477e-06
1.18405e-06
1.18701e-06
1.1863e-06
1.39809e-06
1.39753e-06
1.18289e-06
1.18239e-06
1.18691e-06
1.18625e-06
1.18233e-06
1.1888e-06
1.18774e-06
1.39572e-06
1.39578e-06
1.18259e-06
1.18696e-06
1.18798e-06
1.39764e-06
1.39637e-06
1.39986e-06
1.18631e-06
1.1857e-06
1.18898e-06
1.18848e-06
1.39849e-06
1.40018e-06
1.18658e-06
1.18615e-06
1.18984e-06
1.19081e-06
1.18736e-06
1.19029e-06
1.18832e-06
1.39681e-06
1.40094e-06
1.18758e-06
1.19004e-06
1.18828e-06
1.39745e-06
1.40801e-06
1.43945e-06
1.19595e-06
1.19534e-06
1.2199e-06
1.2201e-06
1.40755e-06
1.43937e-06
1.19708e-06
1.1985e-06
1.22058e-06
1.22197e-06
1.19335e-06
1.21994e-06
1.21873e-06
1.40921e-06
1.44089e-06
1.19299e-06
1.22094e-06
1.21838e-06
1.43727e-06
1.44364e-06
1.42492e-06
1.22255e-06
1.22317e-06
1.21589e-06
1.21733e-06
1.44388e-06
1.42599e-06
1.22309e-06
1.22434e-06
1.21616e-06
1.21686e-06
1.22243e-06
1.21715e-06
1.21789e-06
1.44504e-06
1.42553e-06
1.22218e-06
1.21705e-06
1.21782e-06
1.4275e-06
1.4227e-06
1.36811e-06
1.20732e-06
1.20873e-06
1.17442e-06
1.17563e-06
1.42376e-06
1.36859e-06
1.20758e-06
1.2081e-06
1.17445e-06
1.17453e-06
1.20924e-06
1.17507e-06
1.17545e-06
1.42318e-06
1.36748e-06
1.20917e-06
1.17465e-06
1.1754e-06
1.36938e-06
1.36597e-06
1.34613e-06
1.16462e-06
1.16565e-06
1.15207e-06
1.15272e-06
1.36636e-06
1.34599e-06
1.16462e-06
1.16467e-06
1.15203e-06
1.15213e-06
1.16503e-06
1.15194e-06
1.15147e-06
1.36528e-06
1.34536e-06
1.16495e-06
1.15168e-06
1.15129e-06
1.34504e-06
1.35064e-06
1.40707e-06
1.15285e-06
1.15345e-06
1.18975e-06
1.19005e-06
1.35044e-06
1.40695e-06
1.15282e-06
1.15294e-06
1.18991e-06
1.19023e-06
1.15215e-06
1.18968e-06
1.18894e-06
1.34994e-06
1.407e-06
1.15196e-06
1.18948e-06
1.18854e-06
1.40563e-06
1.42517e-06
1.49036e-06
1.20903e-06
1.20934e-06
1.25775e-06
1.25809e-06
1.42513e-06
1.4906e-06
1.20923e-06
1.20957e-06
1.25788e-06
1.25823e-06
1.20855e-06
1.2581e-06
1.25807e-06
1.42522e-06
1.49073e-06
1.20815e-06
1.25796e-06
1.25778e-06
1.49033e-06
1.50329e-06
1.54459e-06
1.2706e-06
1.27093e-06
1.30234e-06
1.30254e-06
1.50356e-06
1.5448e-06
1.2707e-06
1.27104e-06
1.30233e-06
1.30254e-06
1.27103e-06
1.30259e-06
1.30282e-06
1.50367e-06
1.54485e-06
1.27077e-06
1.30249e-06
1.30266e-06
1.54514e-06
1.55312e-06
1.55685e-06
1.3097e-06
1.30986e-06
1.31616e-06
1.31622e-06
1.5533e-06
1.55685e-06
1.30967e-06
1.30983e-06
1.31606e-06
1.31614e-06
1.31016e-06
1.31622e-06
1.31651e-06
1.55333e-06
1.55686e-06
1.31002e-06
1.3162e-06
1.31641e-06
1.55738e-06
1.55568e-06
1.47044e-06
1.3126e-06
1.3126e-06
1.26238e-06
1.26227e-06
1.55566e-06
1.47027e-06
1.31248e-06
1.31251e-06
1.26219e-06
1.26217e-06
1.31287e-06
1.26222e-06
1.2624e-06
1.55567e-06
1.47031e-06
1.3128e-06
1.26228e-06
1.26239e-06
1.47065e-06
1.46154e-06
1.35428e-06
1.23856e-06
1.23844e-06
1.1704e-06
1.17032e-06
1.46138e-06
1.35413e-06
1.23837e-06
1.23837e-06
1.17023e-06
1.17033e-06
1.23855e-06
1.17026e-06
1.17038e-06
1.46142e-06
1.35424e-06
1.23853e-06
1.17033e-06
1.17034e-06
1.35433e-06
1.34836e-06
1.29697e-06
1.15183e-06
1.15176e-06
1.11498e-06
1.11495e-06
1.34822e-06
1.29688e-06
1.15166e-06
1.15178e-06
1.11483e-06
1.115e-06
1.15181e-06
1.11487e-06
1.11499e-06
1.34833e-06
1.29701e-06
1.15177e-06
1.11492e-06
1.11492e-06
1.297e-06
1.29718e-06
1.30347e-06
1.10913e-06
1.10911e-06
1.10622e-06
1.10623e-06
1.2971e-06
1.30341e-06
1.10899e-06
1.10916e-06
1.10609e-06
1.10627e-06
1.10915e-06
1.10612e-06
1.10626e-06
1.29722e-06
1.30352e-06
1.10906e-06
1.10616e-06
1.10615e-06
1.30352e-06
1.31164e-06
1.34522e-06
1.11064e-06
1.11066e-06
1.13335e-06
1.13339e-06
1.31159e-06
1.34518e-06
1.11052e-06
1.11069e-06
1.13325e-06
1.13341e-06
1.11069e-06
1.13327e-06
1.13341e-06
1.31169e-06
1.34526e-06
1.11057e-06
1.13331e-06
1.1333e-06
1.34528e-06
1.35397e-06
1.38002e-06
1.13991e-06
1.13995e-06
1.15568e-06
1.15573e-06
1.35393e-06
1.37997e-06
1.13981e-06
1.13997e-06
1.15559e-06
1.15574e-06
1.13997e-06
1.1556e-06
1.15575e-06
1.35401e-06
1.38006e-06
1.13987e-06
1.15566e-06
1.15566e-06
1.38009e-06
1.3866e-06
1.40132e-06
1.15953e-06
1.15957e-06
1.16716e-06
1.1672e-06
1.38655e-06
1.40126e-06
1.15944e-06
1.15959e-06
1.16708e-06
1.16723e-06
1.15961e-06
1.16708e-06
1.16724e-06
1.38663e-06
1.40135e-06
1.15951e-06
1.16715e-06
1.16715e-06
1.40139e-06
1.40565e-06
1.41185e-06
1.16869e-06
1.16873e-06
1.17135e-06
1.17139e-06
1.40559e-06
1.4118e-06
1.16861e-06
1.16876e-06
1.17126e-06
1.17142e-06
1.16877e-06
1.17127e-06
1.17143e-06
1.40568e-06
1.41189e-06
1.16869e-06
1.17134e-06
1.17135e-06
1.41193e-06
1.41475e-06
1.41634e-06
1.17186e-06
1.17189e-06
1.17265e-06
1.17269e-06
1.41471e-06
1.41629e-06
1.17177e-06
1.17192e-06
1.17256e-06
1.17272e-06
1.17194e-06
1.17257e-06
1.17273e-06
1.41479e-06
1.41638e-06
1.17185e-06
1.17264e-06
1.17265e-06
1.41642e-06
1.41852e-06
1.41797e-06
1.17278e-06
1.17282e-06
1.17286e-06
1.1729e-06
1.41847e-06
1.41792e-06
1.17269e-06
1.17285e-06
1.17277e-06
1.17293e-06
1.17286e-06
1.17278e-06
1.17294e-06
1.41856e-06
1.41801e-06
1.17278e-06
1.17285e-06
1.17286e-06
1.41805e-06
1.41986e-06
1.41824e-06
1.17285e-06
1.17289e-06
1.17273e-06
1.17276e-06
1.41982e-06
1.41819e-06
1.17276e-06
1.17292e-06
1.17264e-06
1.17279e-06
1.17294e-06
1.17264e-06
1.17281e-06
1.4199e-06
1.41827e-06
1.17285e-06
1.17271e-06
1.17272e-06
1.41831e-06
1.42008e-06
1.41809e-06
1.17269e-06
1.17273e-06
1.17263e-06
1.17267e-06
1.42003e-06
1.41804e-06
1.17261e-06
1.17276e-06
1.17254e-06
1.1727e-06
1.17278e-06
1.17255e-06
1.17271e-06
1.42011e-06
1.41813e-06
1.17269e-06
1.17262e-06
1.17262e-06
1.41816e-06
1.41993e-06
1.41854e-06
1.17265e-06
1.17269e-06
1.17274e-06
1.17278e-06
1.41988e-06
1.41849e-06
1.17256e-06
1.17272e-06
1.17265e-06
1.17281e-06
1.17273e-06
1.17266e-06
1.17282e-06
1.41997e-06
1.41857e-06
1.17264e-06
1.17273e-06
1.17273e-06
1.41861e-06
1.42036e-06
1.41827e-06
1.17275e-06
1.17279e-06
1.17265e-06
1.17269e-06
1.42031e-06
1.41822e-06
1.17266e-06
1.17282e-06
1.17256e-06
1.17272e-06
1.17283e-06
1.17257e-06
1.17273e-06
1.42039e-06
1.4183e-06
1.17274e-06
1.17264e-06
1.17264e-06
1.41834e-06
1.42005e-06
1.41831e-06
1.17265e-06
1.17268e-06
1.17266e-06
1.1727e-06
1.41999e-06
1.41826e-06
1.17256e-06
1.17271e-06
1.17257e-06
1.17273e-06
1.17273e-06
1.17258e-06
1.17274e-06
1.42007e-06
1.41835e-06
1.17264e-06
1.17265e-06
1.17265e-06
1.41838e-06
1.42019e-06
1.41844e-06
1.1727e-06
1.17274e-06
1.17269e-06
1.17272e-06
1.42015e-06
1.41839e-06
1.17261e-06
1.17277e-06
1.1726e-06
1.17275e-06
1.17278e-06
1.1726e-06
1.17277e-06
1.42023e-06
1.41847e-06
1.17269e-06
1.17267e-06
1.17268e-06
1.41851e-06
1.42024e-06
1.41819e-06
1.1727e-06
1.17273e-06
1.17264e-06
1.17268e-06
1.42018e-06
1.41813e-06
1.17261e-06
1.17276e-06
1.17256e-06
1.17271e-06
1.17278e-06
1.17256e-06
1.17272e-06
1.42026e-06
1.41822e-06
1.17269e-06
1.17263e-06
1.17263e-06
1.41826e-06
1.42004e-06
1.41844e-06
1.17268e-06
1.17272e-06
1.17266e-06
1.1727e-06
1.41999e-06
1.4184e-06
1.17259e-06
1.17275e-06
1.17258e-06
1.17273e-06
1.17276e-06
1.17258e-06
1.17275e-06
1.42007e-06
1.41848e-06
1.17267e-06
1.17265e-06
1.17266e-06
1.41852e-06
1.42029e-06
1.41824e-06
1.17271e-06
1.17274e-06
1.17264e-06
1.17267e-06
1.42024e-06
1.41818e-06
1.17262e-06
1.17277e-06
1.17255e-06
1.17271e-06
1.17279e-06
1.17255e-06
1.17272e-06
1.42032e-06
1.41827e-06
1.1727e-06
1.17262e-06
1.17263e-06
1.4183e-06
1.42006e-06
1.41835e-06
1.1727e-06
1.17274e-06
1.17263e-06
1.17267e-06
1.42e-06
1.41831e-06
1.17261e-06
1.17277e-06
1.17255e-06
1.1727e-06
1.17278e-06
1.17255e-06
1.17272e-06
1.42008e-06
1.4184e-06
1.17269e-06
1.17262e-06
1.17263e-06
1.41844e-06
1.42023e-06
1.41826e-06
1.17272e-06
1.17276e-06
1.17261e-06
1.17265e-06
1.42019e-06
1.41819e-06
1.17264e-06
1.17279e-06
1.17253e-06
1.17268e-06
1.17281e-06
1.17253e-06
1.1727e-06
1.42027e-06
1.41828e-06
1.17272e-06
1.1726e-06
1.1726e-06
1.41832e-06
1.42005e-06
1.41838e-06
1.17274e-06
1.17277e-06
1.1726e-06
1.17264e-06
1.41999e-06
1.41834e-06
1.17265e-06
1.1728e-06
1.17252e-06
1.17267e-06
1.17282e-06
1.17252e-06
1.17268e-06
1.42007e-06
1.41843e-06
1.17273e-06
1.17259e-06
1.17259e-06
1.41846e-06
1.42024e-06
1.41802e-06
1.17278e-06
1.17281e-06
1.17221e-06
1.17224e-06
1.4202e-06
1.41796e-06
1.17269e-06
1.17285e-06
1.17212e-06
1.17227e-06
1.17286e-06
1.17212e-06
1.17228e-06
1.42028e-06
1.41806e-06
1.17277e-06
1.17218e-06
1.17219e-06
1.41809e-06
1.41973e-06
1.39941e-06
1.17249e-06
1.17252e-06
1.15188e-06
1.15191e-06
1.41968e-06
1.3994e-06
1.17239e-06
1.17255e-06
1.15186e-06
1.15187e-06
1.17256e-06
1.15191e-06
1.15193e-06
1.41976e-06
1.39943e-06
1.17246e-06
1.1519e-06
1.1519e-06
1.39945e-06
1.37822e-06
1.11634e-06
1.11636e-06
1.37822e-06
1.11634e-06
1.11632e-06
6.47435e-07
6.47405e-07
6.47448e-07
1.11639e-06
1.37823e-06
1.11638e-06
1.00679e-08
2.75915e-09
6.22847e-09
6.21798e-09
1.59992e-09
4.5028e-09
1.11596e-08
3.34846e-09
1.54133e-09
3.7106e-09
3.63759e-09
2.73507e-09
5.25604e-09
6.19494e-09
3.8691e-09
7.38327e-09
1.6401e-07
6.06036e-09
2.59961e-07
1.6127e-06
3.24712e-06
7.55205e-09
1.63222e-07
5.86215e-09
2.58313e-07
3.91894e-09
3.92286e-09
3.98768e-09
3.9028e-09
3.90011e-09
3.90461e-09
3.96497e-09
1.53945e-09
8.5595e-08
2.37947e-09
4.78129e-09
1.5717e-09
6.39419e-08
2.34628e-09
1.62866e-06
3.22581e-06
1.52295e-09
2.70595e-09
7.36499e-08
3.69149e-09
1.53443e-09
2.68611e-09
5.35891e-08
2.18752e-07
2.15949e-07
4.88489e-09
1.87224e-07
1.84161e-07
1.68979e-08
4.66401e-07
1.20201e-08
6.67109e-07
7.12472e-06
1.00997e-05
1.76683e-08
4.66795e-07
1.18782e-08
6.63927e-07
3.89152e-09
3.8989e-09
3.95017e-09
3.86921e-09
3.86872e-09