/*--------------------------------*- C++ -*----------------------------------*\
| =========                 |                                                 |
| \\      /  F ield         | OpenFOAM: The Open Source CFD Toolbox           |
|  \\    /   O peration     | Version:  v1906                                 |
|   \\  /    A nd           | Web:      www.OpenFOAM.com                      |
|    \\/     M anipulation  |                                                 |
\*---------------------------------------------------------------------------*/
FoamFile
{
    version     2.0;
    format      ascii;
    class       volScalarField;
    location    "300";
    object      k;
}
// * * * * * * * * * * * * * * * * * * * * * * * * * * * * * * * * * * * * * //

dimensions      [0 2 -2 0 0 0 0];


internalField   nonuniform List<scalar> 
171728
(
5.70059e-07
3.47689e-07
2.87486e-07
3.50345e-07
5.63825e-07
3.31245e-07
2.79192e-07
3.36593e-07
5.67107e-07
3.16733e-07
2.70625e-07
3.28136e-07
5.70831e-07
3.01978e-07
2.62186e-07
3.23384e-07
5.75079e-07
2.88092e-07
2.54612e-07
3.12403e-07
5.79868e-07
2.78215e-07
2.4989e-07
2.82134e-07
5.85203e-07
2.69278e-07
2.45857e-07
2.64845e-07
5.90863e-07
2.60769e-07
2.45288e-07
2.53109e-07
5.972e-07
2.52754e-07
2.49388e-07
2.43159e-07
6.04199e-07
2.44961e-07
2.53155e-07
2.34331e-07
6.11055e-07
2.3869e-07
2.63069e-07
2.26656e-07
6.1876e-07
2.33932e-07
3.11234e-07
2.19598e-07
6.26816e-07
2.29881e-07
3.71627e-07
2.1351e-07
6.34532e-07
2.27596e-07
3.97198e-07
2.09269e-07
6.43328e-07
2.28165e-07
3.80194e-07
2.08138e-07
6.52168e-07
2.32196e-07
3.28266e-07
2.11191e-07
6.61396e-07
2.41964e-07
3.10417e-07
2.1859e-07
6.70648e-07
2.61113e-07
3.10016e-07
2.39606e-07
6.8008e-07
2.92052e-07
3.07383e-07
2.75261e-07
6.90642e-07
3.35824e-07
3.36497e-07
3.47147e-07
7.00988e-07
4.15167e-07
3.95142e-07
4.81546e-07
7.11312e-07
5.30772e-07
4.85938e-07
7.21628e-07
7.23585e-07
7.29079e-07
6.92173e-07
1.09811e-06
7.37463e-07
8.85015e-07
8.68478e-07
1.81374e-06
7.53262e-07
1.27796e-06
1.22156e-06
2.58665e-06
7.69425e-07
1.81686e-06
1.6751e-06
3.84098e-06
7.90884e-07
2.14893e-06
2.13983e-06
6.23363e-06
8.2093e-07
2.92421e-06
2.84917e-06
7.27223e-06
8.51197e-07
3.44501e-06
3.80084e-06
1.02728e-05
9.01242e-07
4.64301e-06
4.46629e-06
1.31124e-05
9.65107e-07
5.20636e-06
5.72746e-06
1.5027e-05
1.02591e-06
6.84247e-06
7.09454e-06
1.76368e-05
1.11533e-06
7.54107e-06
7.40889e-06
1.96071e-05
1.26276e-06
9.653e-06
9.706e-06
2.20549e-05
1.38265e-06
9.96186e-06
1.09826e-05
2.33454e-05
1.57266e-06
1.34188e-05
1.23198e-05
2.60604e-05
1.83169e-06
1.46248e-05
1.38297e-05
2.65007e-05
2.07956e-06
1.48441e-05
1.56598e-05
2.80903e-05
2.44835e-06
1.77807e-05
1.76535e-05
2.98943e-05
2.96478e-06
1.87641e-05
1.92865e-05
3.06817e-05
3.23175e-06
2.15999e-05
2.10502e-05
3.21749e-05
4.12667e-06
2.21821e-05
2.29678e-05
3.31751e-05
4.36386e-06
2.52981e-05
2.40946e-05
3.44008e-05
5.8157e-06
2.71578e-05
2.72878e-05
3.58371e-05
6.25154e-06
2.73362e-05
2.7921e-05
3.61381e-05
7.08572e-06
3.00339e-05
2.98417e-05
3.78982e-05
8.63893e-06
3.16604e-05
3.17523e-05
3.89466e-05
9.4289e-06
3.28993e-05
3.28036e-05
3.96334e-05
1.05744e-05
3.45182e-05
3.45056e-05
4.08149e-05
1.19836e-05
3.56872e-05
3.5676e-05
4.17048e-05
1.37192e-05
3.73436e-05
3.74017e-05
4.28117e-05
1.47623e-05
3.84348e-05
3.81887e-05
4.34156e-05
1.65347e-05
3.95367e-05
3.9866e-05
4.46682e-05
1.79477e-05
4.09712e-05
4.07999e-05
4.53114e-05
1.96279e-05
4.15945e-05
4.17866e-05
4.60511e-05
2.1212e-05
4.28336e-05
4.26444e-05
4.69943e-05
2.23432e-05
4.40396e-05
4.3765e-05
4.74969e-05
2.40289e-05
4.44041e-05
4.48713e-05
4.84673e-05
2.54256e-05
4.5505e-05
4.53036e-05
4.86118e-05
2.68657e-05
4.61614e-05
4.638e-05
4.97757e-05
2.78654e-05
4.71891e-05
4.7191e-05
5.00737e-05
2.97174e-05
4.81075e-05
4.79642e-05
5.08329e-05
3.01378e-05
4.80659e-05
4.79377e-05
5.05264e-05
3.20739e-05
5.00541e-05
5.01319e-05
5.27298e-05
3.42243e-05
5.08151e-05
5.08463e-05
5.3363e-05
3.39938e-05
4.8917e-05
4.89014e-05
5.10713e-05
3.17601e-05
4.69475e-05
4.69325e-05
4.90543e-05
3.14952e-05
4.81106e-05
4.80969e-05
5.08472e-05
3.69174e-05
5.27351e-05
5.27303e-05
5.50447e-05
4.14206e-05
5.59232e-05
5.59186e-05
5.79425e-05
4.38626e-05
5.76102e-05
5.76075e-05
5.95071e-05
4.38019e-05
5.60014e-05
5.60037e-05
5.71257e-05
3.79502e-05
5.01083e-05
5.01101e-05
5.16763e-05
3.28068e-05
4.65268e-05
4.65281e-05
4.84428e-05
3.10738e-05
4.60292e-05
4.603e-05
4.8421e-05
3.34675e-05
4.83925e-05
4.83925e-05
5.06414e-05
3.7623e-05
5.05326e-05
5.05328e-05
5.25795e-05
3.98598e-05
5.16978e-05
5.16984e-05
5.36833e-05
4.08332e-05
5.21754e-05
5.21759e-05
5.41768e-05
4.12294e-05
5.23549e-05
5.23553e-05
5.43702e-05
4.1376e-05
5.24068e-05
5.24073e-05
5.44339e-05
4.14007e-05
5.2408e-05
5.24085e-05
5.44482e-05
4.1399e-05
5.2399e-05
5.23994e-05
5.44361e-05
4.14084e-05
5.24088e-05
5.24091e-05
5.4452e-05
4.14055e-05
5.2403e-05
5.24034e-05
5.44459e-05
4.14046e-05
5.2403e-05
5.24034e-05
5.4439e-05
4.14059e-05
5.24057e-05
5.24061e-05
5.44543e-05
4.14046e-05
5.24026e-05
5.2403e-05
5.44377e-05
4.14051e-05
5.24048e-05
5.24052e-05
5.44506e-05
4.1405e-05
5.24041e-05
5.24044e-05
5.44441e-05
4.14052e-05
5.2405e-05
5.24054e-05
5.44444e-05
4.14054e-05
5.24055e-05
5.24058e-05
5.44465e-05
4.14055e-05
5.24072e-05
5.24075e-05
5.44449e-05
4.13949e-05
5.23904e-05
5.23904e-05
5.44385e-05
4.09843e-05
5.12769e-05
5.12757e-05
5.41214e-05
3.71085e-07
3.58474e-07
3.36279e-07
3.49911e-07
3.41254e-07
3.55919e-07
5.81055e-07
5.80366e-07
5.84272e-07
5.85479e-07
3.45371e-07
4.07592e-07
3.65808e-07
3.13358e-07
3.41156e-07
3.53387e-07
3.69976e-07
3.51638e-07
3.49161e-07
3.31711e-07
3.36493e-07
3.19968e-07
3.48525e-07
3.32625e-07
3.4119e-07
3.5214e-07
3.28896e-07
3.38381e-07
5.10356e-07
3.35362e-07
5.07761e-07
3.65019e-07
3.47359e-07
3.44231e-07
2.81242e-07
3.30338e-07
3.39021e-07
3.50235e-07
3.33189e-07
3.32237e-07
3.16157e-07
3.20036e-07
3.05474e-07
3.29912e-07
3.16026e-07
3.24898e-07
3.33907e-07
3.13012e-07
3.21336e-07
5.06735e-07
3.20065e-07
4.97473e-07
3.46094e-07
3.29015e-07
3.26031e-07
2.72751e-07
3.13251e-07
3.30202e-07
3.31915e-07
3.16862e-07
3.1609e-07
3.02092e-07
3.05003e-07
2.92529e-07
3.13451e-07
3.01224e-07
3.09238e-07
3.17456e-07
2.98961e-07
3.06568e-07
4.96298e-07
3.05858e-07
4.96941e-07
3.27812e-07
3.12161e-07
3.09167e-07
2.6432e-07
2.9986e-07
3.25015e-07
3.15727e-07
3.02661e-07
3.01537e-07
2.89342e-07
2.92261e-07
2.80435e-07
2.98982e-07
2.87773e-07
2.9562e-07
3.03135e-07
2.85974e-07
2.93787e-07
4.95629e-07
2.91148e-07
4.39646e-07
3.11011e-07
2.97038e-07
2.97282e-07
2.56175e-07
2.89562e-07
3.16203e-07
3.01652e-07
2.89879e-07
2.89403e-07
2.77696e-07
2.80823e-07
2.70053e-07
2.8566e-07
2.75646e-07
2.83018e-07
2.90947e-07
2.7498e-07
2.82886e-07
4.08812e-07
2.80479e-07
3.13648e-07
2.95737e-07
2.83712e-07
2.86853e-07
2.51008e-07
2.78581e-07
2.8478e-07
2.88949e-07
2.78194e-07
2.78038e-07
2.67659e-07
2.70274e-07
2.60902e-07
2.73669e-07
2.64919e-07
2.72434e-07
2.80339e-07
2.65439e-07
2.73117e-07
2.85704e-07
2.71504e-07
2.27413e-07
2.82073e-07
2.71679e-07
2.75605e-07
2.4658e-07
2.67494e-07
2.65687e-07
2.77326e-07
2.67119e-07
2.67755e-07
2.58793e-07
2.60652e-07
2.5283e-07
2.63195e-07
2.55732e-07
2.63256e-07
2.70847e-07
2.5678e-07
2.63625e-07
2.15753e-07
2.62803e-07
1.96532e-07
2.69842e-07
2.59695e-07
2.65176e-07
2.45255e-07
2.58214e-07
2.53762e-07
2.66301e-07
2.56886e-07
2.5851e-07
2.50921e-07
2.52628e-07
2.45714e-07
2.54253e-07
2.47293e-07
2.54812e-07
2.61271e-07
2.49143e-07
2.54723e-07
1.93556e-07
2.54724e-07
1.90218e-07
2.57767e-07
2.49644e-07
2.55909e-07
2.47843e-07
2.49439e-07
2.43719e-07
2.56153e-07
2.47487e-07
2.50715e-07
2.44044e-07
2.45277e-07
2.39393e-07
2.46263e-07
2.39498e-07
2.47371e-07
2.52864e-07
2.42415e-07
2.47781e-07
1.90082e-07
2.46812e-07
1.90169e-07
2.48423e-07
2.43157e-07
2.47629e-07
2.52572e-07
2.4305e-07
2.34704e-07
2.46802e-07
2.38423e-07
2.43656e-07
2.3795e-07
2.39039e-07
2.33446e-07
2.38892e-07
2.32053e-07
2.40954e-07
2.46263e-07
2.36436e-07
2.42338e-07
1.90193e-07
2.40092e-07
1.90418e-07
2.42249e-07
2.3914e-07
2.41667e-07
2.57461e-07
2.38076e-07
2.26979e-07
2.37817e-07
2.30275e-07
2.37554e-07
2.31979e-07
2.33695e-07
2.2871e-07
2.31503e-07
2.24416e-07
2.35044e-07
2.4111e-07
2.32372e-07
2.38009e-07
1.90504e-07
2.35094e-07
1.90862e-07
2.3919e-07
2.44555e-07
2.37006e-07
2.96276e-07
2.33816e-07
2.19826e-07
2.29812e-07
2.23414e-07
2.32567e-07
2.27712e-07
2.30321e-07
2.25741e-07
2.2393e-07
2.17559e-07
2.31823e-07
2.37248e-07
2.29462e-07
2.35399e-07
1.91138e-07
2.30813e-07
1.92614e-07
2.46485e-07
2.56327e-07
2.32748e-07
3.5848e-07
2.30367e-07
2.13577e-07
2.23178e-07
2.18117e-07
2.29811e-07
2.25238e-07
2.28942e-07
2.24774e-07
2.17321e-07
2.12539e-07
2.28799e-07
2.34915e-07
2.28512e-07
2.34458e-07
1.9351e-07
2.27931e-07
1.97112e-07
2.57782e-07
2.59869e-07
2.29855e-07
3.94792e-07
2.28715e-07
2.09098e-07
2.18192e-07
2.15558e-07
2.28959e-07
2.24894e-07
2.29727e-07
2.26068e-07
2.12588e-07
2.09437e-07
2.28803e-07
2.34343e-07
2.29965e-07
2.34705e-07
1.98493e-07
2.2775e-07
2.03833e-07
2.60254e-07
2.53578e-07
2.28373e-07
3.93113e-07
2.28445e-07
2.07507e-07
2.16145e-07
2.15988e-07
2.30435e-07
2.27048e-07
2.33613e-07
2.3071e-07
2.09978e-07
2.09754e-07
2.30534e-07
2.35157e-07
2.33467e-07
2.37586e-07
2.06074e-07
2.306e-07
2.14978e-07
2.5252e-07
2.38908e-07
2.28771e-07
3.38725e-07
2.319e-07
2.09319e-07
2.17533e-07
2.20875e-07
2.35406e-07
2.33075e-07
2.4208e-07
2.41913e-07
2.11157e-07
2.16522e-07
2.35514e-07
2.38993e-07
2.4225e-07
2.45163e-07
2.18177e-07
2.3927e-07
2.28764e-07
2.39081e-07
2.36956e-07
2.33616e-07
3.12144e-07
2.40504e-07
2.15383e-07
2.24222e-07
2.35251e-07
2.45907e-07
2.4531e-07
2.5771e-07
2.60333e-07
2.19709e-07
2.31593e-07
2.46542e-07
2.48444e-07
2.57919e-07
2.60246e-07
2.32817e-07
2.55544e-07
2.50439e-07
2.3942e-07
2.4639e-07
2.43156e-07
3.09913e-07
2.57452e-07
2.32504e-07
2.40644e-07
2.68831e-07
2.62916e-07
2.66214e-07
2.88441e-07
2.85013e-07
2.39157e-07
2.58484e-07
2.63035e-07
2.67102e-07
2.86699e-07
2.84669e-07
2.5687e-07
2.79657e-07
2.79192e-07
2.51772e-07
2.68564e-07
2.63151e-07
3.0686e-07
2.83555e-07
2.63439e-07
2.81114e-07
3.12739e-07
2.95315e-07
2.97115e-07
3.28221e-07
3.28288e-07
2.72268e-07
3.24307e-07
2.93664e-07
2.93616e-07
3.26585e-07
3.31366e-07
2.89857e-07
3.23157e-07
3.2619e-07
2.76465e-07
3.33927e-07
2.92623e-07
3.28126e-07
3.27748e-07
3.27788e-07
3.4194e-07
4.44909e-07
3.49789e-07
3.40834e-07
3.94609e-07
4.01848e-07
3.38968e-07
4.51955e-07
3.47215e-07
3.43629e-07
3.93385e-07
3.96422e-07
3.40442e-07
3.97774e-07
3.97924e-07
3.51738e-07
4.37088e-07
3.40923e-07
3.73633e-07
3.94176e-07
4.44958e-07
4.63924e-07
6.60831e-07
4.20683e-07
4.19914e-07
4.88467e-07
5.04867e-07
4.90542e-07
6.25789e-07
4.1788e-07
4.15279e-07
4.91867e-07
5.09902e-07
4.19171e-07
5.01455e-07
5.04094e-07
4.73836e-07
6.5045e-07
4.15141e-07
4.66301e-07
4.98633e-07
6.55142e-07
6.95599e-07
1.09071e-06
5.13192e-07
5.35549e-07
6.8488e-07
6.61202e-07
7.04153e-07
9.92644e-07
5.1573e-07
5.27252e-07
6.83593e-07
6.64326e-07
5.36273e-07
6.51813e-07
6.53044e-07
7.12332e-07
9.56722e-07
5.32712e-07
6.21455e-07
6.41849e-07
1.00806e-06
1.23168e-06
1.44115e-06
7.19945e-07
7.35412e-07
8.45557e-07
8.45002e-07
1.09424e-06
1.61746e-06
7.22841e-07
7.28492e-07
8.47808e-07
8.53239e-07
6.94802e-07
8.43443e-07
8.89923e-07
1.12128e-06
1.55028e-06
6.80262e-07
7.95973e-07
8.86925e-07
1.6126e-06
1.5776e-06
2.64558e-06
9.37694e-07
8.93192e-07
1.16915e-06
1.24476e-06
1.66639e-06
2.7474e-06
9.5344e-07
9.19825e-07
1.15411e-06
1.19181e-06
9.44367e-07
1.2387e-06
1.18914e-06
1.60839e-06
2.58734e-06
9.37062e-07
1.15023e-06
1.16653e-06
2.34943e-06
2.7869e-06
3.81117e-06
1.25297e-06
1.28235e-06
1.58421e-06
1.55021e-06
2.94904e-06
3.51021e-06
1.25468e-06
1.2845e-06
1.5694e-06
1.51516e-06
1.30442e-06
1.53611e-06
1.49181e-06
2.82598e-06
3.55466e-06
1.2961e-06
1.52009e-06
1.4874e-06
3.73325e-06
4.18351e-06
5.02682e-06
1.672e-06
1.83599e-06
2.01638e-06
2.15937e-06
4.36939e-06
5.91374e-06
1.65683e-06
1.64938e-06
2.01204e-06
2.08723e-06
1.60302e-06
2.14245e-06
2.18939e-06
3.84173e-06
5.45425e-06
1.59295e-06
1.9931e-06
2.1261e-06
5.6945e-06
5.50348e-06
7.77128e-06
2.20443e-06
2.16364e-06
2.75784e-06
2.58421e-06
5.84898e-06
6.65088e-06
2.1376e-06
2.15272e-06
2.76311e-06
2.67794e-06
2.26702e-06
2.52945e-06
2.64274e-06
5.77461e-06
7.20758e-06
2.19982e-06
2.70839e-06
2.61822e-06
6.87318e-06
8.01444e-06
9.09838e-06
2.84432e-06
2.93307e-06
3.1554e-06
3.36889e-06
8.01685e-06
1.0401e-05
2.93553e-06
2.87745e-06
3.16227e-06
3.35009e-06
2.88771e-06
3.34453e-06
3.34964e-06
7.62756e-06
1.00656e-05
2.85101e-06
3.48963e-06
3.32511e-06
1.00519e-05
9.58607e-06
1.27098e-05
3.48544e-06
3.52617e-06
4.48546e-06
4.35153e-06
1.05263e-05
1.23969e-05
3.35673e-06
3.61568e-06
4.43647e-06
4.41698e-06
3.50573e-06
4.40583e-06
4.35477e-06
1.07089e-05
1.21661e-05
3.47197e-06
4.36825e-06
4.33199e-06
1.23346e-05
1.34051e-05
1.44647e-05
4.62668e-06
4.61335e-06
5.02724e-06
5.0387e-06
1.31463e-05
1.44934e-05
4.57715e-06
4.51823e-06
5.10967e-06
4.85571e-06
4.67887e-06
4.94719e-06
5.14005e-06
1.26403e-05
1.39273e-05
4.64306e-06
5.293e-06
5.07463e-06
1.46813e-05
1.48089e-05
1.75225e-05
5.52634e-06
5.28404e-06
6.54504e-06
6.52351e-06
1.48773e-05
1.72317e-05
5.5645e-06
5.37517e-06
6.42895e-06
6.80849e-06
5.24238e-06
6.58127e-06
6.504e-06
1.45548e-05
1.83171e-05
5.19311e-06
6.89182e-06
6.4644e-06
1.69405e-05
1.78388e-05
1.86807e-05
6.61492e-06
6.78864e-06
7.14306e-06
7.19095e-06
1.77907e-05
1.91126e-05
6.50124e-06
6.96581e-06
7.08664e-06
7.11442e-06
6.94572e-06
7.18441e-06
7.42137e-06
1.86009e-05
1.84317e-05
6.9079e-06
7.29344e-06
7.38841e-06
1.93318e-05
1.93372e-05
2.19994e-05
7.8745e-06
7.63729e-06
9.26017e-06
9.4717e-06
1.96831e-05
2.18415e-05
7.79063e-06
7.26078e-06
9.27645e-06
9.02918e-06
7.56441e-06
9.37067e-06
9.21804e-06
1.85793e-05
2.1851e-05
7.49497e-06
9.03411e-06
9.10031e-06
2.14375e-05
2.22872e-05
2.2978e-05
9.37771e-06
9.75095e-06
9.94127e-06
9.93274e-06
2.20944e-05
2.22553e-05
9.42103e-06
9.58068e-06
1.00931e-05
1.0311e-05
9.64028e-06
9.85898e-06
1.004e-05
2.25857e-05
2.34424e-05
9.63734e-06
1.08732e-05
1.01723e-05
2.30271e-05
2.33745e-05
2.5015e-05
1.06742e-05
1.00038e-05
1.20546e-05
1.24007e-05
2.25187e-05
2.60263e-05
1.07697e-05
1.0466e-05
1.19185e-05
1.18591e-05
1.02477e-05
1.24702e-05
1.25369e-05
2.36815e-05
2.48946e-05
1.03238e-05
1.16725e-05
1.23034e-05
2.5591e-05
2.5308e-05
2.64578e-05
1.21814e-05
1.34581e-05
1.35094e-05
1.47151e-05
2.68639e-05
2.72399e-05
1.20258e-05
1.25013e-05
1.34298e-05
1.35936e-05
1.31061e-05
1.45599e-05
1.36979e-05
2.53604e-05
2.64445e-05
1.2922e-05
1.36875e-05
1.36309e-05
2.63376e-05
2.69589e-05
2.79112e-05
1.41772e-05
1.47832e-05
1.50977e-05
1.48229e-05
2.7295e-05
2.73545e-05
1.41888e-05
1.36987e-05
1.52623e-05
1.49075e-05
1.37444e-05
1.47014e-05
1.43007e-05
2.67092e-05
2.78166e-05
1.36917e-05
1.47514e-05
1.44497e-05
2.75228e-05
2.81185e-05
2.93193e-05
1.53056e-05
1.49028e-05
1.70938e-05
1.72397e-05
2.76992e-05
2.95483e-05
1.53885e-05
1.58259e-05
1.66679e-05
1.7485e-05
1.53359e-05
1.72698e-05
1.73968e-05
2.83139e-05
2.95216e-05
1.55589e-05
1.75006e-05
1.72945e-05
2.9658e-05
2.97523e-05
3.05642e-05
1.78459e-05
1.79152e-05
1.89863e-05
1.85499e-05
2.98651e-05
3.04215e-05
1.74345e-05
1.76158e-05
1.91326e-05
1.87782e-05
1.76981e-05
1.83297e-05
1.89542e-05
2.97234e-05
3.04321e-05
1.7634e-05
1.87992e-05
1.88963e-05
3.04593e-05
3.07712e-05
3.18293e-05
1.90852e-05
1.87652e-05
2.0317e-05
2.09673e-05
3.07238e-05
3.19751e-05
1.93075e-05
1.92731e-05
2.03211e-05
2.04688e-05
1.92478e-05
2.10956e-05
2.02957e-05
3.07999e-05
3.19486e-05
1.91557e-05
2.04447e-05
2.02212e-05
3.17999e-05
3.21781e-05
3.28418e-05
2.11397e-05
2.15618e-05
2.27904e-05
2.21647e-05
3.21886e-05
3.2425e-05
2.10236e-05
2.10906e-05
2.2727e-05
2.28125e-05
2.09338e-05
2.20733e-05
2.28616e-05
3.22423e-05
3.28932e-05
2.08761e-05
2.27467e-05
2.29e-05
3.2992e-05
3.30133e-05
3.41014e-05
2.29618e-05
2.2271e-05
2.3626e-05
2.42624e-05
3.26645e-05
3.46932e-05
2.29354e-05
2.30402e-05
2.36099e-05
2.34967e-05
2.31746e-05
2.43e-05
2.36976e-05
3.30357e-05
3.38198e-05
2.32661e-05
2.34451e-05
2.37729e-05
3.40019e-05
3.45305e-05
3.55829e-05
2.44592e-05
2.52681e-05
2.67676e-05
2.70027e-05
3.51372e-05
3.55899e-05
2.43946e-05
2.41033e-05
2.67171e-05
2.67225e-05
2.42676e-05
2.69749e-05
2.66851e-05
3.43151e-05
3.5799e-05
2.42344e-05
2.67332e-05
2.66108e-05
3.56604e-05
3.57265e-05
3.59361e-05
2.71501e-05
2.71945e-05
2.7475e-05
2.73347e-05
3.56433e-05
3.57671e-05
2.71474e-05
2.72807e-05
2.75326e-05
2.78769e-05
2.72167e-05
2.72835e-05
2.77584e-05
3.59572e-05
3.60589e-05
2.71586e-05
2.78807e-05
2.77258e-05
3.60029e-05
3.61123e-05
3.76775e-05
2.75607e-05
2.73987e-05
2.94678e-05
2.91318e-05
3.59877e-05
3.76138e-05
2.75979e-05
2.79194e-05
2.93465e-05
2.88801e-05
2.78075e-05
2.9187e-05
2.89766e-05
3.61855e-05
3.73743e-05
2.77733e-05
2.87617e-05
2.89317e-05
3.74176e-05
3.811e-05
3.86903e-05
3.03103e-05
2.99679e-05
3.13999e-05
3.16696e-05
3.80055e-05
3.87826e-05
3.02532e-05
2.99497e-05
3.13527e-05
3.14406e-05
2.98865e-05
3.1509e-05
3.15143e-05
3.78843e-05
3.88512e-05
2.99315e-05
3.16315e-05
3.15404e-05
3.88268e-05
3.8777e-05
3.95576e-05
3.14843e-05
3.18706e-05
3.25717e-05
3.21986e-05
3.89184e-05
3.92905e-05
3.14563e-05
3.1587e-05
3.27561e-05
3.26457e-05
3.17618e-05
3.23386e-05
3.25021e-05
3.89404e-05
3.93927e-05
3.17094e-05
3.24535e-05
3.24646e-05
3.9391e-05
3.98899e-05
4.03958e-05
3.31611e-05
3.2669e-05
3.39273e-05
3.42684e-05
3.95431e-05
4.07487e-05
3.32242e-05
3.2995e-05
3.37285e-05
3.38731e-05
3.28591e-05
3.43538e-05
3.41018e-05
3.96675e-05
4.04904e-05
3.289e-05
3.39938e-05
3.40991e-05
4.06006e-05
4.05024e-05
4.16661e-05
3.40779e-05
3.44168e-05
3.5585e-05
3.52872e-05
4.08815e-05
4.1291e-05
3.39221e-05
3.43442e-05
3.56305e-05
3.5638e-05
3.44859e-05
3.51706e-05
3.54211e-05
4.07134e-05
4.16434e-05
3.44214e-05
3.55099e-05
3.54025e-05
4.14862e-05
4.20377e-05
4.25879e-05
3.61783e-05
3.59109e-05
3.69666e-05
3.71401e-05
4.15986e-05
4.27676e-05
3.62212e-05
3.58641e-05
3.69669e-05
3.68522e-05
3.57663e-05
3.71054e-05
3.6961e-05
4.18079e-05
4.24552e-05
3.5809e-05
3.68772e-05
3.70025e-05
4.26181e-05
4.26442e-05
4.33299e-05
3.70285e-05
3.72341e-05
3.80448e-05
3.79092e-05
4.2886e-05
4.32959e-05
3.7041e-05
3.73312e-05
3.79933e-05
3.80685e-05
3.72875e-05
3.80685e-05
3.79586e-05
4.27467e-05
4.34253e-05
3.72883e-05
3.81259e-05
3.79098e-05
4.32539e-05
4.36724e-05
4.43802e-05
3.85805e-05
3.84833e-05
3.93017e-05
3.94723e-05
4.35672e-05
4.43892e-05
3.8458e-05
3.81719e-05
3.94127e-05
3.93563e-05
3.82131e-05
3.93367e-05
3.93792e-05
4.35026e-05
4.43125e-05
3.81731e-05
3.92576e-05
3.93931e-05
4.44104e-05
4.44777e-05
4.51407e-05
3.94438e-05
3.95474e-05
4.04964e-05
4.0297e-05
4.44874e-05
4.51187e-05
3.96234e-05
3.98737e-05
4.04261e-05
4.05537e-05
3.97634e-05
4.05558e-05
4.0552e-05
4.46746e-05
4.53012e-05
3.97932e-05
4.07493e-05
4.0555e-05
4.52036e-05
4.53982e-05
4.60379e-05
4.09101e-05
4.08411e-05
4.15528e-05
4.18108e-05
4.54257e-05
4.60343e-05
4.07588e-05
4.0619e-05
4.16674e-05
4.1518e-05
4.07632e-05
4.15587e-05
4.13559e-05
4.53473e-05
4.58431e-05
4.07506e-05
4.13345e-05
4.14225e-05
4.58524e-05
4.6153e-05
4.67833e-05
4.17068e-05
4.18728e-05
4.26431e-05
4.21157e-05
4.60743e-05
4.63966e-05
4.1944e-05
4.19428e-05
4.27127e-05
4.25636e-05
4.16153e-05
4.22346e-05
4.27025e-05
4.61457e-05
4.66897e-05
4.1725e-05
4.25438e-05
4.27063e-05
4.68391e-05
4.69624e-05
4.72861e-05
4.29607e-05
4.25792e-05
4.34388e-05
4.37742e-05
4.67336e-05
4.7742e-05
4.28609e-05
4.26339e-05
4.32053e-05
4.33196e-05
4.29632e-05
4.39374e-05
4.34591e-05
4.6749e-05
4.73112e-05
4.28795e-05
4.33451e-05
4.32949e-05
4.7323e-05
4.73884e-05
4.81401e-05
4.36125e-05
4.3946e-05
4.44261e-05
4.44721e-05
4.78184e-05
4.7958e-05
4.34858e-05
4.37473e-05
4.45642e-05
4.47545e-05
4.37667e-05
4.42618e-05
4.47227e-05
4.76009e-05
4.83854e-05
4.36509e-05
4.47633e-05
4.4797e-05
4.83752e-05
4.83275e-05
4.88603e-05
4.46583e-05
4.46906e-05
4.53491e-05
4.53305e-05
4.80861e-05
4.8769e-05
4.4808e-05
4.48645e-05
4.54443e-05
4.51808e-05
4.48457e-05
4.51649e-05
4.49838e-05
4.84501e-05
4.85638e-05
4.49593e-05
4.50385e-05
4.50824e-05
4.84963e-05
4.90198e-05
4.93791e-05
4.56346e-05
4.55319e-05
4.61632e-05
4.59445e-05
4.89314e-05
4.92418e-05
4.56971e-05
4.55078e-05
4.61136e-05
4.62241e-05
4.51873e-05
4.61058e-05
4.64345e-05
4.87407e-05
4.95054e-05
4.52103e-05
4.62816e-05
4.64065e-05
4.96804e-05
4.94317e-05
4.99672e-05
4.62298e-05
4.60619e-05
4.6915e-05
4.69246e-05
4.93085e-05
5.0021e-05
4.61465e-05
4.62898e-05
4.66622e-05
4.68181e-05
4.65815e-05
4.6769e-05
4.67746e-05
4.95797e-05
4.99849e-05
4.65668e-05
4.68538e-05
4.67786e-05
4.98961e-05
5.02328e-05
5.0717e-05
4.72928e-05
4.73216e-05
4.79442e-05
4.79735e-05
5.02994e-05
5.08217e-05
4.71053e-05
4.71754e-05
4.79273e-05
4.78837e-05
4.70521e-05
4.8056e-05
4.79945e-05
5.02155e-05
5.06895e-05
4.7067e-05
4.7925e-05
4.80011e-05
5.08097e-05
5.07214e-05
5.04323e-05
4.79605e-05
4.79893e-05
4.78875e-05
4.78997e-05
5.08278e-05
5.04991e-05
4.79655e-05
4.79144e-05
4.79235e-05
4.78719e-05
4.8059e-05
4.80587e-05
4.80043e-05
5.0697e-05
5.04306e-05
4.80671e-05
4.79185e-05
4.80111e-05
5.04994e-05
5.05175e-05
5.25314e-05
4.79076e-05
4.79111e-05
4.94793e-05
4.93833e-05
5.05505e-05
5.2452e-05
4.79481e-05
4.79044e-05
4.95521e-05
4.96041e-05
4.80059e-05
4.93941e-05
4.92578e-05
5.05221e-05
5.25742e-05
4.80109e-05
4.94938e-05
4.92155e-05
5.22991e-05
5.29045e-05
5.33556e-05
5.01073e-05
5.00493e-05
5.08045e-05
5.08082e-05
5.28477e-05
5.33616e-05
5.01633e-05
5.02061e-05
5.08351e-05
5.08606e-05
4.99657e-05
5.08135e-05
5.08232e-05
5.29477e-05
5.33937e-05
4.99369e-05
5.08477e-05
5.08162e-05
5.33853e-05
5.33093e-05
5.12741e-05
5.08028e-05
5.081e-05
4.96631e-05
4.97152e-05
5.33207e-05
5.13065e-05
5.08321e-05
5.08557e-05
4.96574e-05
4.96389e-05
5.08326e-05
4.97073e-05
4.98123e-05
5.33435e-05
5.1255e-05
5.0827e-05
4.96906e-05
4.98288e-05
5.14026e-05
5.09647e-05
4.9142e-05
4.88941e-05
4.89364e-05
4.72082e-05
4.723e-05
5.09918e-05
4.91403e-05
4.88825e-05
4.88602e-05
4.71877e-05
4.71656e-05
4.89902e-05
4.71865e-05
4.7188e-05
5.09385e-05
4.90996e-05
4.90055e-05
4.71713e-05
4.71975e-05
4.91149e-05
4.90928e-05
5.02353e-05
4.69758e-05
4.69936e-05
4.71886e-05
4.7198e-05
4.90892e-05
5.02231e-05
4.69555e-05
4.69358e-05
4.71774e-05
4.71697e-05
4.69332e-05
4.71546e-05
4.71052e-05
4.90506e-05
5.02162e-05
4.69402e-05
4.71401e-05
4.71021e-05
5.01353e-05
5.09471e-05
5.44638e-05
4.8142e-05
4.81426e-05
5.1759e-05
5.17711e-05
5.09363e-05
5.44732e-05
4.81465e-05
4.81551e-05
5.17685e-05
5.17834e-05
4.8024e-05
5.17689e-05
5.17315e-05
5.09353e-05
5.44784e-05
4.80061e-05
5.17632e-05
5.1719e-05
5.44373e-05
5.50607e-05
5.74742e-05
5.27184e-05
5.27327e-05
5.51803e-05
5.51959e-05
5.50727e-05
5.74911e-05
5.27281e-05
5.27446e-05
5.5188e-05
5.52029e-05
5.27099e-05
5.52064e-05
5.52045e-05
5.50778e-05
5.74926e-05
5.26992e-05
5.52016e-05
5.51986e-05
5.74955e-05
5.79191e-05
5.9384e-05
5.58979e-05
5.59121e-05
5.74001e-05
5.74083e-05
5.79355e-05
5.93936e-05
5.59043e-05
5.59166e-05
5.74023e-05
5.74059e-05
5.5927e-05
5.74196e-05
5.74324e-05
5.79357e-05
5.93905e-05
5.59225e-05
5.74164e-05
5.74318e-05
5.94155e-05
5.94761e-05
5.78097e-05
5.75929e-05
5.75992e-05
5.71937e-05
5.71921e-05
5.94844e-05
5.78067e-05
5.75941e-05
5.75953e-05
5.71902e-05
5.7183e-05
5.76242e-05
5.72005e-05
5.72144e-05
5.9481e-05
5.78025e-05
5.76244e-05
5.72004e-05
5.72183e-05
5.78266e-05
5.71109e-05
5.22984e-05
5.60048e-05
5.5996e-05
5.14759e-05
5.14692e-05
5.71071e-05
5.22935e-05
5.5997e-05
5.59828e-05
5.14702e-05
5.14633e-05
5.60129e-05
5.1472e-05
5.14761e-05
5.71031e-05
5.22933e-05
5.602e-05
5.14738e-05
5.14802e-05
5.23008e-05
5.16739e-05
4.86116e-05
5.01116e-05
5.01054e-05
4.70983e-05
4.70943e-05
5.16695e-05
4.8609e-05
5.01063e-05
5.01014e-05
4.70938e-05
4.70943e-05
5.01103e-05
4.70952e-05
4.7096e-05
5.16696e-05
4.86113e-05
5.01137e-05
4.70966e-05
4.70972e-05
4.86116e-05
4.84425e-05
4.81934e-05
4.65293e-05
4.6526e-05
4.59776e-05
4.5976e-05
4.84404e-05
4.81926e-05
4.65252e-05
4.65268e-05
4.59743e-05
4.59772e-05
4.65275e-05
4.59758e-05
4.59771e-05
4.84426e-05
4.81946e-05
4.6528e-05
4.59767e-05
4.59762e-05
4.8194e-05
4.84201e-05
5.02358e-05
4.60307e-05
4.60295e-05
4.77333e-05
4.77345e-05
4.84196e-05
5.02361e-05
4.60276e-05
4.60307e-05
4.77316e-05
4.77343e-05
4.60306e-05
4.77339e-05
4.7735e-05
4.84213e-05
5.02366e-05
4.60294e-05
4.77338e-05
4.77329e-05
5.02369e-05
5.06405e-05
5.22874e-05
4.83921e-05
4.83934e-05
5.0085e-05
5.00862e-05
5.06408e-05
5.22877e-05
4.83907e-05
4.83927e-05
5.00843e-05
5.0085e-05
4.83938e-05
5.00863e-05
5.0087e-05
5.06411e-05
5.22877e-05
4.83921e-05
5.00864e-05
5.0086e-05
5.22887e-05
5.25782e-05
5.35294e-05
5.05313e-05
5.05324e-05
5.14872e-05
5.14881e-05
5.25785e-05
5.35295e-05
5.05309e-05
5.05313e-05
5.14873e-05
5.14871e-05
5.05335e-05
5.1489e-05
5.14897e-05
5.25784e-05
5.35295e-05
5.05328e-05
5.14895e-05
5.14896e-05
5.35311e-05
5.36817e-05
5.4101e-05
5.16961e-05
5.16969e-05
5.20929e-05
5.20935e-05
5.36818e-05
5.41011e-05
5.16964e-05
5.1696e-05
5.20931e-05
5.20927e-05
5.16987e-05
5.20949e-05
5.20955e-05
5.36817e-05
5.4101e-05
5.16988e-05
5.20955e-05
5.20958e-05
5.41027e-05
5.41751e-05
5.43309e-05
5.21733e-05
5.21738e-05
5.2323e-05
5.23234e-05
5.41752e-05
5.43312e-05
5.21735e-05
5.21731e-05
5.23231e-05
5.23227e-05
5.2176e-05
5.23252e-05
5.23256e-05
5.41751e-05
5.4331e-05
5.21763e-05
5.23256e-05
5.23259e-05
5.43327e-05
5.43684e-05
5.44121e-05
5.23527e-05
5.23532e-05
5.23988e-05
5.23993e-05
5.43687e-05
5.44124e-05
5.23529e-05
5.23524e-05
5.2399e-05
5.23985e-05
5.23554e-05
5.2401e-05
5.24016e-05
5.43685e-05
5.44121e-05
5.23557e-05
5.24015e-05
5.24019e-05
5.4414e-05
5.4432e-05
5.44312e-05
5.24046e-05
5.24051e-05
5.24071e-05
5.24077e-05
5.44323e-05
5.44315e-05
5.24049e-05
5.24043e-05
5.24074e-05
5.24068e-05
5.24074e-05
5.24094e-05
5.24099e-05
5.4432e-05
5.44312e-05
5.24077e-05
5.24098e-05
5.24103e-05
5.44331e-05
5.44463e-05
5.44207e-05
5.24058e-05
5.24063e-05
5.23967e-05
5.23973e-05
5.44465e-05
5.44208e-05
5.24061e-05
5.24055e-05
5.23971e-05
5.23965e-05
5.24086e-05
5.23991e-05
5.23996e-05
5.44462e-05
5.44207e-05
5.24089e-05
5.23995e-05
5.23999e-05
5.44225e-05
5.44342e-05
5.44323e-05
5.23967e-05
5.23972e-05
5.24041e-05
5.24047e-05
5.44345e-05
5.44329e-05
5.2397e-05
5.23965e-05
5.24044e-05
5.24038e-05
5.23995e-05
5.24065e-05
5.24068e-05
5.44343e-05
5.44324e-05
5.23998e-05
5.24068e-05
5.2407e-05
5.4434e-05
5.44503e-05
5.44326e-05
5.24065e-05
5.24071e-05
5.24032e-05
5.24037e-05
5.44509e-05
5.44324e-05
5.24069e-05
5.24062e-05
5.24036e-05
5.24028e-05
5.24092e-05
5.24054e-05
5.24059e-05
5.44504e-05
5.44322e-05
5.24095e-05
5.24058e-05
5.24062e-05
5.44342e-05
5.44442e-05
5.44202e-05
5.24008e-05
5.24012e-05
5.23983e-05
5.23989e-05
5.44441e-05
5.44206e-05
5.24011e-05
5.24004e-05
5.23987e-05
5.23981e-05
5.24035e-05
5.24007e-05
5.24011e-05
5.44439e-05
5.44204e-05
5.24038e-05
5.24011e-05
5.24014e-05
5.44221e-05
5.4437e-05
5.44377e-05
5.24006e-05
5.24012e-05
5.24034e-05
5.24039e-05
5.44376e-05
5.4438e-05
5.2401e-05
5.24004e-05
5.24038e-05
5.24031e-05
5.24034e-05
5.24057e-05
5.24061e-05
5.44374e-05
5.44377e-05
5.24037e-05
5.2406e-05
5.24063e-05
5.44395e-05
5.44526e-05
5.44226e-05
5.24035e-05
5.2404e-05
5.23994e-05
5.23998e-05
5.44528e-05
5.44224e-05
5.24039e-05
5.24032e-05
5.23998e-05
5.23991e-05
5.24061e-05
5.24016e-05
5.2402e-05
5.44524e-05
5.44222e-05
5.24063e-05
5.2402e-05
5.24022e-05
5.44238e-05
5.44364e-05
5.44309e-05
5.24003e-05
5.24008e-05
5.24008e-05
5.24014e-05
5.44363e-05
5.44317e-05
5.24008e-05
5.24001e-05
5.24012e-05
5.24006e-05
5.2403e-05
5.24032e-05
5.24036e-05
5.44361e-05
5.44315e-05
5.24032e-05
5.24035e-05
5.24038e-05
5.44332e-05
5.44483e-05
5.44302e-05
5.24025e-05
5.2403e-05
5.24001e-05
5.24006e-05
5.44491e-05
5.44297e-05
5.24029e-05
5.24022e-05
5.24006e-05
5.23999e-05
5.24052e-05
5.24024e-05
5.24028e-05
5.44488e-05
5.44295e-05
5.24054e-05
5.24027e-05
5.2403e-05
5.44311e-05
5.44432e-05
5.44242e-05
5.24018e-05
5.24023e-05
5.23997e-05
5.24003e-05
5.44427e-05
5.44251e-05
5.24023e-05
5.24015e-05
5.24002e-05
5.23995e-05
5.24045e-05
5.24021e-05
5.24025e-05
5.44424e-05
5.44249e-05
5.24046e-05
5.24024e-05
5.24027e-05
5.44266e-05
5.4442e-05
5.44329e-05
5.24027e-05
5.24033e-05
5.23997e-05
5.24002e-05
5.4443e-05
5.44323e-05
5.24031e-05
5.24025e-05
5.24002e-05
5.23994e-05
5.24054e-05
5.2402e-05
5.24024e-05
5.44428e-05
5.44321e-05
5.24056e-05
5.24023e-05
5.24025e-05
5.44341e-05
5.44453e-05
5.44246e-05
5.24032e-05
5.24038e-05
5.23991e-05
5.23997e-05
5.44448e-05
5.44257e-05
5.24037e-05
5.2403e-05
5.23996e-05
5.2399e-05
5.24059e-05
5.24014e-05
5.24018e-05
5.44446e-05
5.44253e-05
5.24061e-05
5.24017e-05
5.2402e-05
5.44267e-05
5.44428e-05
5.44268e-05
5.24048e-05
5.24054e-05
5.23968e-05
5.23973e-05
5.44442e-05
5.44259e-05
5.24053e-05
5.24047e-05
5.23972e-05
5.23966e-05
5.24075e-05
5.23991e-05
5.23995e-05
5.44436e-05
5.44261e-05
5.24077e-05
5.23994e-05
5.23997e-05
5.44281e-05
5.44372e-05
5.4263e-05
5.2388e-05
5.23886e-05
5.22434e-05
5.22444e-05
5.44364e-05
5.42646e-05
5.23884e-05
5.23877e-05
5.22452e-05
5.22424e-05
5.23905e-05
5.22477e-05
5.22456e-05
5.44365e-05
5.42634e-05
5.23907e-05
5.22465e-05
5.22471e-05
5.42647e-05
5.41197e-05
5.12723e-05
5.12731e-05
5.41211e-05
5.12743e-05
5.12711e-05
4.09858e-05
4.09845e-05
4.09866e-05
5.12743e-05
5.41199e-05
5.12761e-05
1.74354e-06
3.12529e-07
1.07229e-06
1.06963e-06
9.85844e-08
3.48298e-07
4.63489e-07
5.57488e-07
1.0915e-07
3.06076e-07
5.79483e-07
1.96424e-07
3.61515e-07
3.03738e-07
2.69451e-07
3.03235e-07
4.95914e-06
2.63365e-07
6.64251e-06
1.3999e-05
2.18701e-05
3.01254e-07
4.94262e-06
2.56715e-07
6.6141e-06
5.69258e-07
5.72736e-07
5.78011e-07
5.63401e-07
5.62466e-07
5.65705e-07
5.73648e-07
1.08141e-07
7.07709e-07
2.97831e-07
3.43479e-07
1.03562e-07
6.78027e-07
2.93946e-07
1.40991e-05
2.17697e-05
1.09072e-07
3.00242e-07
5.25127e-07
2.85187e-07
1.10777e-07
2.97355e-07
5.15089e-07
1.91387e-06
1.89639e-06
3.44957e-07
1.89168e-06
1.87275e-06
4.93564e-07
9.79931e-06
4.04248e-07
1.24448e-05
3.69165e-05
4.65578e-05
4.9947e-07
9.80429e-06
4.04667e-07
1.24022e-05
5.63127e-07
5.66383e-07
5.74124e-07
5.6637e-07
5.65797e-07