/*--------------------------------*- C++ -*----------------------------------*\
| =========                 |                                                 |
| \\      /  F ield         | OpenFOAM: The Open Source CFD Toolbox           |
|  \\    /   O peration     | Version:  v1906                                 |
|   \\  /    A nd           | Web:      www.OpenFOAM.com                      |
|    \\/     M anipulation  |                                                 |
\*---------------------------------------------------------------------------*/
FoamFile
{
    version     2.0;
    format      ascii;
    class       volScalarField;
    location    "300";
    object      nut;
}
// * * * * * * * * * * * * * * * * * * * * * * * * * * * * * * * * * * * * * //

dimensions      [0 2 -1 0 0 0 0];


internalField   nonuniform List<scalar> 
171728
(
7.45431e-06
2.22704e-06
1.99647e-06
2.20046e-06
7.34853e-06
2.22219e-06
1.97201e-06
2.18711e-06
7.49507e-06
2.23499e-06
1.94366e-06
2.23026e-06
7.6457e-06
2.22935e-06
1.89587e-06
2.41673e-06
7.80655e-06
2.21294e-06
1.84789e-06
2.50331e-06
7.98178e-06
2.22994e-06
1.82003e-06
2.27673e-06
8.16774e-06
2.23759e-06
1.76779e-06
2.15808e-06
8.35016e-06
2.22113e-06
1.73343e-06
2.11314e-06
8.53504e-06
2.18385e-06
1.74394e-06
2.07207e-06
8.72614e-06
2.12122e-06
1.7634e-06
2.01142e-06
8.90069e-06
2.04886e-06
1.88102e-06
1.9438e-06
9.08149e-06
1.9689e-06
2.57817e-06
1.85729e-06
9.26787e-06
1.86633e-06
3.58998e-06
1.75474e-06
9.42803e-06
1.75405e-06
4.04324e-06
1.64785e-06
9.6076e-06
1.64394e-06
3.6539e-06
1.54833e-06
9.77718e-06
1.53296e-06
2.62589e-06
1.44291e-06
9.94292e-06
1.44189e-06
2.10879e-06
1.34201e-06
1.00894e-05
1.38976e-06
1.83148e-06
1.28728e-06
1.02234e-05
1.36845e-06
1.50089e-06
1.28033e-06
1.03634e-05
1.40523e-06
1.40902e-06
1.42739e-06
1.04678e-05
1.59951e-06
1.46969e-06
1.79285e-06
1.05168e-05
1.90966e-06
1.67783e-06
2.51396e-06
1.05832e-05
2.55309e-06
2.3768e-06
3.70078e-06
1.05906e-05
2.8395e-06
2.79324e-06
5.98139e-06
1.05605e-05
4.44878e-06
4.04583e-06
7.97349e-06
1.04375e-05
6.09319e-06
5.55016e-06
1.23566e-05
1.02144e-05
7.49831e-06
6.96264e-06
2.04777e-05
1.02448e-05
9.73155e-06
9.45877e-06
2.14707e-05
9.73899e-06
1.11936e-05
1.28924e-05
3.24358e-05
9.74298e-06
1.61668e-05
1.49842e-05
4.02516e-05
9.63334e-06
1.68523e-05
1.92685e-05
4.55139e-05
9.58478e-06
2.41163e-05
2.5336e-05
5.26688e-05
9.19256e-06
2.44046e-05
2.42788e-05
5.84397e-05
1.01655e-05
3.45978e-05
3.32973e-05
6.60326e-05
9.87058e-06
3.22177e-05
3.84561e-05
6.82714e-05
1.08452e-05
4.6697e-05
4.18366e-05
7.88812e-05
1.16581e-05
5.23798e-05
4.76438e-05
7.85508e-05
1.29257e-05
4.88233e-05
5.25854e-05
8.26472e-05
1.40189e-05
6.16799e-05
6.09049e-05
8.982e-05
1.75646e-05
6.23985e-05
6.58574e-05
9.16007e-05
1.70412e-05
7.5107e-05
7.1224e-05
9.6763e-05
2.32897e-05
7.40777e-05
7.92043e-05
0.000100181
2.18644e-05
8.6063e-05
7.95283e-05
0.000103546
3.1441e-05
9.47054e-05
9.4493e-05
0.00010997
3.30857e-05
9.14622e-05
9.51666e-05
0.000109566
3.43898e-05
0.000101665
0.000100224
0.000115899
4.51028e-05
0.000108567
0.000109037
0.000120286
4.66532e-05
0.00011137
0.000111428
0.000121968
5.28086e-05
0.000118347
0.000117593
0.000126465
5.76586e-05
0.000121095
0.000121768
0.000129425
6.85029e-05
0.000128468
0.000128539
0.000133806
7.05459e-05
0.000132039
0.000131208
0.000135495
8.02103e-05
0.000136316
0.000137666
0.000140446
8.56059e-05
0.000142383
0.000142052
0.000142899
9.41399e-05
0.000144953
0.000145275
0.000145379
0.000101711
0.000149184
0.000149037
0.000149389
0.000105957
0.000155968
0.000153296
0.000150852
0.000114215
0.000156516
0.000159369
0.000155497
0.00012055
0.000161554
0.000160044
0.000155222
0.000128641
0.000164794
0.000165851
0.00016098
0.000131444
0.000169228
0.000169458
0.000161844
0.000143704
0.000175262
0.000174464
0.000166285
0.000143662
0.000173841
0.000172783
0.00016366
0.000153403
0.000184371
0.000184841
0.000173484
0.000172405
0.000192302
0.000192572
0.000179801
0.000174719
0.000184859
0.000184799
0.00017173
0.000154662
0.00017209
0.000172018
0.000160509
0.000142927
0.000172288
0.000172217
0.00016341
0.000178486
0.00019693
0.000196914
0.000181384
0.000213902
0.000214878
0.000214855
0.000194479
0.000237954
0.000227568
0.000227545
0.000204794
0.00025166
0.000227918
0.000227924
0.000200926
0.000207444
0.000196209
0.000196213
0.000178239
0.000163655
0.000175675
0.000175677
0.000162812
0.000146597
0.000171702
0.000171702
0.000160871
0.000159488
0.00018491
0.000184902
0.000170462
0.000193769
0.000198214
0.000198205
0.000179434
0.0002149
0.000205835
0.000205827
0.000184512
0.000225056
0.000209089
0.00020908
0.00018671
0.000229444
0.000210364
0.000210355
0.000187545
0.000231174
0.000210769
0.00021076
0.000187807
0.000231567
0.000210807
0.000210798
0.000187877
0.00023158
0.000210742
0.000210733
0.000187814
0.000231675
0.000210803
0.000210793
0.000187867
0.000231664
0.000210775
0.000210765
0.000187866
0.000231648
0.000210765
0.000210756
0.0001878
0.000231664
0.000210788
0.000210778
0.000187899
0.000231652
0.000210766
0.000210756
0.000187811
0.000231655
0.000210779
0.000210769
0.000187866
0.000231654
0.000210774
0.000210764
0.000187854
0.000231655
0.000210777
0.000210768
0.000187831
0.000231655
0.000210779
0.000210769
0.000187871
0.000231657
0.000210785
0.000210775
0.000187834
0.000231625
0.000210703
0.000210692
0.000187858
0.000233508
0.000211966
0.000211958
0.000191272
2.40654e-06
2.61081e-06
2.45139e-06
2.29688e-06
2.44415e-06
2.63715e-06
7.74918e-06
7.73999e-06
7.8257e-06
7.77441e-06
2.53241e-06
2.96168e-06
2.3615e-06
2.41095e-06
2.44024e-06
2.21183e-06
2.4038e-06
2.37405e-06
2.30072e-06
2.21797e-06
2.29146e-06
2.20219e-06
2.2917e-06
2.28058e-06
2.25972e-06
2.32925e-06
2.24608e-06
2.30846e-06
2.53646e-06
2.22235e-06
2.67379e-06
2.3611e-06
2.35485e-06
2.24116e-06
1.9759e-06
2.23266e-06
2.18855e-06
2.37151e-06
2.34691e-06
2.28967e-06
2.19933e-06
2.28229e-06
2.19357e-06
2.26037e-06
2.25824e-06
2.24465e-06
2.30486e-06
2.23375e-06
2.29593e-06
2.74399e-06
2.22951e-06
3.00156e-06
2.35409e-06
2.3413e-06
2.23121e-06
1.95204e-06
2.21436e-06
2.21877e-06
2.34447e-06
2.32617e-06
2.27855e-06
2.19149e-06
2.26926e-06
2.18693e-06
2.23717e-06
2.23677e-06
2.22999e-06
2.29405e-06
2.22536e-06
2.29079e-06
3.18062e-06
2.23522e-06
4.11105e-06
2.33953e-06
2.31741e-06
2.20629e-06
1.91024e-06
2.21342e-06
2.42082e-06
2.32415e-06
2.31631e-06
2.26677e-06
2.18284e-06
2.26823e-06
2.17268e-06
2.2179e-06
2.21493e-06
2.22273e-06
2.28947e-06
2.21152e-06
2.2922e-06
4.52096e-06
2.2138e-06
4.7732e-06
2.31484e-06
2.28851e-06
2.2213e-06
1.8561e-06
2.24071e-06
2.54161e-06
2.31467e-06
2.30809e-06
2.26967e-06
2.17028e-06
2.26334e-06
2.16426e-06
2.1958e-06
2.19439e-06
2.20901e-06
2.29406e-06
2.20474e-06
2.29876e-06
4.48536e-06
2.225e-06
3.19969e-06
2.2819e-06
2.26629e-06
2.24309e-06
1.82837e-06
2.24098e-06
2.30693e-06
2.30558e-06
2.29558e-06
2.2592e-06
2.16208e-06
2.24472e-06
2.15259e-06
2.1746e-06
2.1755e-06
2.20236e-06
2.29902e-06
2.19583e-06
2.2961e-06
2.78394e-06
2.23786e-06
1.9513e-06
2.25195e-06
2.22531e-06
2.23402e-06
1.77884e-06
2.21565e-06
2.16493e-06
2.29156e-06
2.27e-06
2.2379e-06
2.14845e-06
2.21137e-06
2.13238e-06
2.15684e-06
2.16019e-06
2.19281e-06
2.29385e-06
2.17301e-06
2.2679e-06
1.79537e-06
2.2263e-06
1.55134e-06
2.20435e-06
2.15323e-06
2.21231e-06
1.74384e-06
2.19169e-06
2.11839e-06
2.2638e-06
2.22981e-06
2.20286e-06
2.12425e-06
2.17338e-06
2.09976e-06
2.14231e-06
2.13231e-06
2.16651e-06
2.25639e-06
2.13727e-06
2.21518e-06
1.51487e-06
2.19471e-06
1.47667e-06
2.12725e-06
2.08011e-06
2.18056e-06
1.73373e-06
2.13977e-06
2.07906e-06
2.22181e-06
2.17693e-06
2.16155e-06
2.08888e-06
2.11719e-06
2.05229e-06
2.11858e-06
2.09322e-06
2.12592e-06
2.20309e-06
2.08756e-06
2.16094e-06
1.47867e-06
2.13924e-06
1.48747e-06
2.06285e-06
2.04257e-06
2.12887e-06
1.7614e-06
2.09648e-06
2.01861e-06
2.16624e-06
2.10074e-06
2.10236e-06
2.0388e-06
2.04722e-06
1.98377e-06
2.08335e-06
2.03587e-06
2.0741e-06
2.14676e-06
2.01912e-06
2.10082e-06
1.48736e-06
2.06832e-06
1.48063e-06
2.0283e-06
2.03558e-06
2.08418e-06
1.80896e-06
2.04529e-06
1.95282e-06
2.0876e-06
2.00869e-06
2.02723e-06
1.96248e-06
1.96043e-06
1.90301e-06
2.02372e-06
1.94769e-06
1.99694e-06
2.08414e-06
1.95085e-06
2.02735e-06
1.47541e-06
1.99127e-06
1.45359e-06
2.03444e-06
2.14725e-06
2.03134e-06
2.35014e-06
1.9766e-06
1.86923e-06
1.9934e-06
1.90418e-06
1.93721e-06
1.88118e-06
1.87158e-06
1.81961e-06
1.93196e-06
1.84151e-06
1.93829e-06
2.00892e-06
1.8717e-06
1.94826e-06
1.44569e-06
1.89368e-06
1.42182e-06
2.17016e-06
2.33922e-06
1.95471e-06
3.35838e-06
1.8874e-06
1.77065e-06
1.88579e-06
1.78945e-06
1.85028e-06
1.79694e-06
1.77992e-06
1.73146e-06
1.82292e-06
1.73067e-06
1.84425e-06
1.92525e-06
1.77573e-06
1.85926e-06
1.417e-06
1.7815e-06
1.40279e-06
2.34745e-06
2.36792e-06
1.8658e-06
4.0012e-06
1.79137e-06
1.66875e-06
1.76659e-06
1.67495e-06
1.75732e-06
1.70936e-06
1.68124e-06
1.63703e-06
1.70858e-06
1.60841e-06
1.756e-06
1.83234e-06
1.6887e-06
1.74619e-06
1.3968e-06
1.67254e-06
1.37695e-06
2.34891e-06
2.19094e-06
1.76245e-06
3.93639e-06
1.6761e-06
1.57356e-06
1.64707e-06
1.55321e-06
1.65789e-06
1.61589e-06
1.57975e-06
1.54731e-06
1.58074e-06
1.48956e-06
1.66388e-06
1.71808e-06
1.5834e-06
1.63328e-06
1.37109e-06
1.56063e-06
1.3687e-06
2.13409e-06
1.84052e-06
1.64546e-06
2.84516e-06
1.56654e-06
1.46699e-06
1.52035e-06
1.42848e-06
1.55547e-06
1.52898e-06
1.4828e-06
1.48471e-06
1.4544e-06
1.38501e-06
1.56278e-06
1.60342e-06
1.49141e-06
1.52113e-06
1.36652e-06
1.46787e-06
1.34702e-06
1.79057e-06
1.60742e-06
1.54365e-06
2.20349e-06
1.48392e-06
1.36989e-06
1.39475e-06
1.33648e-06
1.46742e-06
1.46414e-06
1.40754e-06
1.42912e-06
1.35903e-06
1.29278e-06
1.48002e-06
1.50075e-06
1.42006e-06
1.43415e-06
1.33627e-06
1.39722e-06
1.33641e-06
1.56155e-06
1.44283e-06
1.45946e-06
1.89708e-06
1.41262e-06
1.2956e-06
1.30836e-06
1.32019e-06
1.39093e-06
1.42407e-06
1.41523e-06
1.38041e-06
1.28909e-06
1.23564e-06
1.40242e-06
1.43155e-06
1.40613e-06
1.39068e-06
1.33811e-06
1.34411e-06
1.32691e-06
1.40851e-06
1.35061e-06
1.40299e-06
1.58767e-06
1.38179e-06
1.27915e-06
1.33907e-06
1.27061e-06
1.40453e-06
1.39992e-06
1.40641e-06
1.42076e-06
1.23959e-06
1.38657e-06
1.39423e-06
1.38455e-06
1.40338e-06
1.44048e-06
1.34073e-06
1.39551e-06
1.40223e-06
1.31059e-06
1.4373e-06
1.38185e-06
1.42253e-06
1.4262e-06
1.39922e-06
1.33252e-06
1.73048e-06
1.4751e-06
1.42927e-06
1.54686e-06
1.58541e-06
1.37974e-06
1.72916e-06
1.46467e-06
1.45122e-06
1.54418e-06
1.5531e-06
1.42445e-06
1.56828e-06
1.55979e-06
1.46232e-06
1.65558e-06
1.44322e-06
1.41912e-06
1.54891e-06
1.69839e-06
1.71112e-06
2.41457e-06
1.62241e-06
1.61812e-06
1.76727e-06
1.84568e-06
1.85006e-06
2.1212e-06
1.61151e-06
1.58485e-06
1.79107e-06
1.88952e-06
1.60779e-06
1.83671e-06
1.83604e-06
1.75215e-06
2.3155e-06
1.59283e-06
1.66382e-06
1.81517e-06
2.3106e-06
2.45708e-06
3.69993e-06
1.79103e-06
1.92498e-06
2.43731e-06
2.27535e-06
2.3599e-06
3.26715e-06
1.81445e-06
1.89728e-06
2.43631e-06
2.29321e-06
1.92466e-06
2.23029e-06
2.26983e-06
2.52601e-06
3.0022e-06
1.91848e-06
2.08137e-06
2.22365e-06
3.43953e-06
4.3196e-06
4.55254e-06
2.54421e-06
2.58565e-06
2.79753e-06
2.82299e-06
3.48996e-06
5.56444e-06
2.56455e-06
2.54285e-06
2.81089e-06
2.85825e-06
2.37517e-06
2.84198e-06
3.04334e-06
3.57211e-06
5.24998e-06
2.30824e-06
2.5737e-06
3.04795e-06
5.22446e-06
4.78532e-06
8.9996e-06
3.13127e-06
2.85769e-06
3.89675e-06
4.39545e-06
5.4661e-06
9.30251e-06
3.23054e-06
3.05038e-06
3.81882e-06
4.0106e-06
3.19392e-06
4.37445e-06
3.98115e-06
5.16068e-06
8.52553e-06
3.18373e-06
3.84035e-06
3.86574e-06
7.37009e-06
9.37828e-06
1.22329e-05
4.15108e-06
4.44985e-06
5.3339e-06
4.80182e-06
1.01279e-05
9.71007e-06
4.15872e-06
4.34739e-06
5.27822e-06
4.92263e-06
4.4506e-06
4.75037e-06
4.8164e-06
9.42025e-06
1.11839e-05
4.4136e-06
4.94668e-06
4.82952e-06
1.24282e-05
1.37448e-05
1.51535e-05
5.58786e-06
6.17471e-06
6.52659e-06
7.79014e-06
1.30036e-05
2.13463e-05
5.51997e-06
5.3652e-06
6.59387e-06
7.06477e-06
5.07948e-06
7.72292e-06
7.57953e-06
1.19516e-05
1.75536e-05
5.06188e-06
6.50487e-06
7.26861e-06
1.81441e-05
1.65082e-05
2.55686e-05
7.20913e-06
7.55072e-06
9.56232e-06
8.12154e-06
2.07084e-05
1.81186e-05
6.9316e-06
7.11736e-06
9.45031e-06
8.88596e-06
7.77415e-06
7.82278e-06
8.64791e-06
1.8552e-05
2.23884e-05
7.40708e-06
9.0904e-06
8.58966e-06
2.08539e-05
2.61797e-05
2.74559e-05
9.7831e-06
9.79961e-06
9.92895e-06
1.12413e-05
2.35331e-05
3.3894e-05
1.02239e-05
9.6537e-06
1.01333e-05
1.09488e-05
9.6615e-06
1.12186e-05
1.11415e-05
2.35123e-05
3.1238e-05
9.51747e-06
1.15177e-05
1.10573e-05
3.21832e-05
2.85985e-05
3.90878e-05
1.1173e-05
1.16101e-05
1.56781e-05
1.47735e-05
3.36734e-05
3.7713e-05
1.05183e-05
1.194e-05
1.5415e-05
1.55513e-05
1.15002e-05
1.51145e-05
1.46653e-05
3.36859e-05
3.76231e-05
1.1368e-05
1.50461e-05
1.46144e-05
3.73168e-05
4.17072e-05
4.37032e-05
1.61116e-05
1.58974e-05
1.62126e-05
1.66972e-05
4.05885e-05
4.38218e-05
1.58132e-05
1.5771e-05
1.67463e-05
1.52228e-05
1.61264e-05
1.62228e-05
1.74604e-05
3.89616e-05
4.05884e-05
1.60009e-05
1.74824e-05
1.71174e-05
4.48934e-05
4.40571e-05
5.3731e-05
1.83917e-05
1.73329e-05
2.32058e-05
2.26746e-05
4.44886e-05
5.2096e-05
1.87601e-05
1.72734e-05
2.2607e-05
2.43146e-05
1.72566e-05
2.29878e-05
2.21411e-05
4.19051e-05
5.73714e-05
1.70293e-05
2.4504e-05
2.1989e-05
5.03434e-05
5.45125e-05
5.43765e-05
2.30408e-05
2.37682e-05
2.28536e-05
2.33462e-05
5.38483e-05
5.61938e-05
2.24424e-05
2.49622e-05
2.269e-05
2.37507e-05
2.42748e-05
2.35204e-05
2.51981e-05
5.8249e-05
5.47896e-05
2.4114e-05
2.46994e-05
2.525e-05
5.81523e-05
5.62421e-05
6.65042e-05
2.61565e-05
2.47716e-05
3.27311e-05
3.37543e-05
5.7817e-05
6.6834e-05
2.57706e-05
2.34151e-05
3.26924e-05
3.05806e-05
2.4915e-05
3.32502e-05
3.19521e-05
5.39735e-05
6.49558e-05
2.48029e-05
3.02116e-05
3.11338e-05
6.38661e-05
6.71572e-05
6.80464e-05
3.281e-05
3.51298e-05
3.26689e-05
3.37783e-05
6.73101e-05
6.4849e-05
3.29098e-05
3.31526e-05
3.36079e-05
3.54968e-05
3.39822e-05
3.32878e-05
3.37051e-05
6.80279e-05
7.02621e-05
3.37729e-05
3.8523e-05
3.46645e-05
6.7868e-05
6.89458e-05
7.4466e-05
3.59374e-05
3.25262e-05
4.19284e-05
4.1168e-05
6.47234e-05
7.75529e-05
3.66715e-05
3.54054e-05
4.13974e-05
4.00276e-05
3.34049e-05
4.18159e-05
4.34889e-05
7.05e-05
7.37673e-05
3.42045e-05
3.90886e-05
4.2257e-05
7.70685e-05
7.50865e-05
7.83379e-05
4.16343e-05
4.66744e-05
4.56319e-05
5.32218e-05
8.14535e-05
8.31029e-05
4.09438e-05
4.28751e-05
4.50982e-05
4.72402e-05
4.63459e-05
5.24563e-05
4.82733e-05
7.5326e-05
7.86501e-05
4.53278e-05
4.76987e-05
4.7883e-05
7.85595e-05
8.01348e-05
8.32597e-05
4.86825e-05
5.31799e-05
5.16405e-05
5.05025e-05
8.28348e-05
8.0447e-05
4.86502e-05
4.68426e-05
5.28131e-05
4.93308e-05
4.76553e-05
4.97329e-05
4.61109e-05
7.91432e-05
8.22629e-05
4.72867e-05
4.8605e-05
4.68527e-05
8.07236e-05
8.35132e-05
8.74043e-05
5.15839e-05
4.92972e-05
5.78399e-05
5.88243e-05
8.11291e-05
8.86203e-05
5.24867e-05
5.34739e-05
5.56954e-05
6.09594e-05
5.05929e-05
5.93333e-05
5.99984e-05
8.40054e-05
8.86506e-05
5.20082e-05
6.10063e-05
5.94978e-05
8.91496e-05
8.89878e-05
9.16456e-05
6.1281e-05
6.21201e-05
6.57886e-05
6.29599e-05
8.96341e-05
9.06719e-05
5.88858e-05
6.06983e-05
6.63277e-05
6.382e-05
6.07185e-05
6.14883e-05
6.51872e-05
8.90477e-05
9.06811e-05
6.04138e-05
6.39952e-05
6.50338e-05
9.12122e-05
9.19783e-05
9.56799e-05
6.524e-05
6.26465e-05
6.79345e-05
7.18783e-05
9.14798e-05
9.68422e-05
6.63787e-05
6.5711e-05
6.8208e-05
6.89504e-05
6.59223e-05
7.27584e-05
6.8059e-05
9.17993e-05
9.61825e-05
6.55464e-05
6.89371e-05
6.76445e-05
9.53671e-05
9.69686e-05
9.90855e-05
7.15645e-05
7.46976e-05
7.88605e-05
7.55305e-05
9.74665e-05
9.67096e-05
7.10674e-05
7.13226e-05
7.85159e-05
7.89772e-05
7.04329e-05
7.50948e-05
7.89618e-05
9.72179e-05
9.95539e-05
7.00743e-05
7.87139e-05
7.90487e-05
9.98799e-05
9.92304e-05
0.000102606
7.8911e-05
7.45678e-05
7.81685e-05
8.09564e-05
9.69141e-05
0.000105458
7.8813e-05
7.95263e-05
7.82469e-05
7.77998e-05
7.99907e-05
8.12004e-05
7.8936e-05
9.96428e-05
0.00010099
8.04217e-05
7.75149e-05
7.95524e-05
0.000102118
0.00010429
0.000109155
8.15373e-05
8.58237e-05
9.24324e-05
9.42512e-05
0.000107462
0.000109528
8.13025e-05
7.95579e-05
9.21102e-05
9.16798e-05
8.062e-05
9.42123e-05
9.16395e-05
0.000102847
0.000110038
8.05949e-05
9.1772e-05
9.12637e-05
0.000109406
0.000109491
0.000109026
9.41412e-05
9.47708e-05
9.35148e-05
9.28177e-05
0.000109337
0.000108102
9.41036e-05
9.4421e-05
9.39858e-05
9.59592e-05
9.4205e-05
9.26418e-05
9.52978e-05
0.000110549
0.000109853
9.39065e-05
9.60477e-05
9.51955e-05
0.000109572
0.000109195
0.000115305
9.254e-05
9.17881e-05
9.91105e-05
9.73579e-05
0.000108463
0.000115013
9.29538e-05
9.50536e-05
9.84514e-05
9.56649e-05
9.43877e-05
9.76819e-05
9.64472e-05
0.0001098
0.000113585
9.42814e-05
9.50319e-05
9.60843e-05
0.00011388
0.000117157
0.000119434
0.000103262
0.000101146
0.000107961
0.000109216
0.00011661
0.000119861
0.000102968
0.000100926
0.00010756
0.000107918
0.0001007
0.000108372
0.000108165
0.000115745
0.000120239
0.000100881
0.000109026
0.000108474
0.000120066
0.000119399
0.000121951
0.000107531
0.000109851
0.000110421
0.000108531
0.000120145
0.000120684
0.000107142
0.000107891
0.000111684
0.000111288
0.000108917
0.000109207
0.000110507
0.000120307
0.000121264
0.000108747
0.000110335
0.000110218
0.000121254
0.000123269
0.000124996
0.000113169
0.000110017
0.000115722
0.000117524
0.000121384
0.000126654
0.000113862
0.000112549
0.000114625
0.000114815
0.000111593
0.000117982
0.000116184
0.000122163
0.000125225
0.00011173
0.000115392
0.000116319
0.000125787
0.000125017
0.00012929
0.000115504
0.000117715
0.000121103
0.000119495
0.000126967
0.000127637
0.000114528
0.000116613
0.000121299
0.000122176
0.000117686
0.000119106
0.000120807
0.000125897
0.000129672
0.000117422
0.000121666
0.000120602
0.00012878
0.000130867
0.000133246
0.000124031
0.000122265
0.000127439
0.000128237
0.000128613
0.000133905
0.00012425
0.000122774
0.000127401
0.000125944
0.000121959
0.000127591
0.000126822
0.0001301
0.000132201
0.000122134
0.000125983
0.000127163
0.000133166
0.000133135
0.000135113
0.000126999
0.000128227
0.00013009
0.000129351
0.000134189
0.000135164
0.000127039
0.000128161
0.000129847
0.000131155
0.000128193
0.000130565
0.000130201
0.000133283
0.000136161
0.000128301
0.000131637
0.000129959
0.000135136
0.00013649
0.000139618
0.000132762
0.000132095
0.00013576
0.000136909
0.000136102
0.000139723
0.000131959
0.000130951
0.000136143
0.000135268
0.000130887
0.00013578
0.000135644
0.000136148
0.000138775
0.000130678
0.000134532
0.000135681
0.00013946
0.000139751
0.000142088
0.000135884
0.00013677
0.000139943
0.000138536
0.000139858
0.000141895
0.000136801
0.000137906
0.000139612
0.000141081
0.000137425
0.000140282
0.000140737
0.000140303
0.000143317
0.000137557
0.000142235
0.000140773
0.000142687
0.000143058
0.000145835
0.000141983
0.000141227
0.000144712
0.000146476
0.000143145
0.000146165
0.000141034
0.000140833
0.000145027
0.000143969
0.000141511
0.000145256
0.000143368
0.000143235
0.000144609
0.000141437
0.000143005
0.000143641
0.000144746
0.000146088
0.000148699
0.000145052
0.000146534
0.000149011
0.000145601
0.000146095
0.000146351
0.000146237
0.000146128
0.000149859
0.000149055
0.000144258
0.0001461
0.000149325
0.000145853
0.000148421
0.000144831
0.00014891
0.000149588
0.00014887
0.000149358
0.000150576
0.00015061
0.000147701
0.000152475
0.000154194
0.000147627
0.000152834
0.00015047
0.000148994
0.000151005
0.000151118
0.000150587
0.000155482
0.000152075
0.000148407
0.000150174
0.000150353
0.000151278
0.000151087
0.000150359
0.000150722
0.000153856
0.000153008
0.000154993
0.000156542
0.00015699
0.000153037
0.000153232
0.000152038
0.000153178
0.000157271
0.00015868
0.000153369
0.000156165
0.000158485
0.000151304
0.000155301
0.000152563
0.000158824
0.00015874
0.000155182
0.000154536
0.000156971
0.000157576
0.000157925
0.000160659
0.000160967
0.000153528
0.000156699
0.000158478
0.00015918
0.000161468
0.000159788
0.000159129
0.000159746
0.000158544
0.000155458
0.000155488
0.00015968
0.00015902
0.000159256
0.000155119
0.000157561
0.000159322
0.000162145
0.000161993
0.000164856
0.000163737
0.000157322
0.000158711
0.000162816
0.000161384
0.000164969
0.000165271
0.000159044
0.000164787
0.000166196
0.000156016
0.000159822
0.000159293
0.000165425
0.000166001
0.000160618
0.000159318
0.000161437
0.000164909
0.000164
0.000167746
0.000167911
0.000158719
0.000161643
0.000164842
0.000165438
0.000166353
0.000167433
0.000167088
0.000166934
0.000167229
0.000159989
0.000161631
0.000166964
0.000167635
0.00016722
0.000161257
0.000162611
0.000165902
0.000169902
0.000170212
0.000174284
0.000174603
0.000162867
0.000166333
0.000168826
0.000169399
0.000174178
0.000173956
0.000168524
0.000174835
0.000174543
0.000162599
0.000165676
0.000168594
0.000174154
0.000174557
0.000166242
0.000165816
0.000163521
0.000174506
0.000174806
0.000173584
0.000173747
0.000166259
0.000163918
0.000174503
0.000174195
0.00017372
0.000173206
0.000175069
0.000174636
0.00017453
0.000165603
0.000163384
0.000175096
0.000173655
0.000174585
0.00016424
0.000163125
0.000172537
0.000172718
0.000172831
0.00018062
0.000179891
0.000163391
0.000172025
0.000172847
0.000172328
0.00018105
0.000181225
0.000173805
0.000179992
0.000179179
0.000163015
0.000172646
0.000173895
0.000180573
0.000178923
0.000171274
0.00017449
0.000179809
0.000184833
0.000184311
0.000191052
0.000190855
0.000174086
0.000179715
0.000185164
0.000185291
0.00019124
0.000191322
0.000183808
0.000190922
0.000190879
0.000174604
0.000179989
0.000183632
0.000191194
0.000190837
0.000179684
0.000179777
0.000172949
0.000192396
0.000192225
0.000189011
0.000189212
0.00017972
0.000173107
0.000192577
0.000192672
0.000188962
0.000188809
0.000192315
0.000189243
0.000189982
0.000179947
0.000172899
0.000192285
0.000189184
0.000190117
0.000173655
0.000171135
0.000161459
0.000184744
0.000184901
0.0001741
0.000174162
0.000171268
0.000161465
0.000184656
0.000184481
0.000173955
0.000173777
0.000185405
0.000173959
0.000174042
0.000171046
0.000161272
0.000185535
0.000173887
0.000174138
0.000161412
0.000160598
0.000161415
0.000172273
0.000172315
0.000168447
0.00016847
0.000160597
0.00016135
0.000172129
0.000171967
0.000168343
0.000168244
0.000172065
0.000168213
0.000167965
0.000160405
0.000161301
0.000172146
0.000168138
0.000168
0.000160939
0.000163914
0.00017913
0.000172526
0.000172486
0.0001917
0.000191737
0.000163848
0.000179163
0.00017253
0.000172542
0.00019175
0.000191806
0.000171749
0.000191718
0.000191447
0.000163832
0.000179181
0.000171678
0.000191697
0.000191399
0.000178959
0.000181502
0.000192475
0.00019686
0.000196917
0.000210421
0.000210506
0.000181549
0.000192563
0.000196917
0.000196988
0.00021048
0.000210559
0.00019673
0.000210579
0.000210526
0.000181569
0.000192566
0.00019669
0.000210558
0.000210508
0.00019255
0.000194393
0.000203861
0.000214715
0.000214798
0.0002253
0.000225353
0.000194481
0.000203927
0.000214769
0.000214837
0.000225332
0.000225348
0.000214863
0.000225442
0.000225493
0.000194479
0.000203904
0.000214851
0.000225421
0.000225504
0.000204008
0.000204648
0.000204549
0.00022743
0.000227479
0.00023321
0.000233218
0.000204708
0.000204551
0.00022746
0.000227464
0.000233217
0.000233162
0.000227631
0.000233297
0.000233375
0.000204684
0.000204516
0.000227645
0.000233283
0.00023341
0.000204639
0.000200849
0.000181766
0.000227917
0.000227866
0.000203759
0.000203719
0.000200844
0.000181751
0.000227888
0.000227773
0.000203743
0.000203672
0.000227985
0.000203752
0.000203765
0.00020081
0.000181735
0.000228045
0.000203755
0.000203803
0.000181774
0.00017823
0.000163981
0.000196215
0.000196178
0.000179055
0.000179029
0.000178217
0.000163974
0.000196201
0.000196142
0.000179044
0.000179021
0.000196208
0.000179049
0.000179036
0.000178203
0.000163974
0.000196242
0.000179052
0.000179057
0.000163976
0.000162816
0.000160367
0.000175677
0.000175654
0.000171986
0.000171973
0.000162811
0.00016037
0.000175668
0.000175652
0.000171981
0.000171976
0.000175659
0.000171989
0.000171976
0.000162811
0.000160369
0.000175677
0.000171989
0.000171986
0.000160365
0.000160871
0.00016884
0.000171698
0.000171685
0.000180934
0.000180937
0.000160874
0.000168847
0.000171693
0.000171689
0.000180938
0.000180932
0.000171689
0.000180952
0.000180937
0.000160873
0.00016884
0.000171698
0.000180944
0.000180939
0.00016884
0.000170463
0.000178299
0.000184893
0.000184896
0.000195353
0.000195354
0.000170471
0.000178308
0.000184898
0.000184889
0.000195362
0.000195343
0.000184896
0.000195377
0.000195356
0.000170462
0.000178297
0.0001849
0.000195367
0.000195365
0.0001783
0.000179434
0.000184031
0.00019819
0.000198191
0.000204414
0.000204414
0.000179442
0.000184039
0.000198202
0.000198179
0.000204429
0.000204401
0.000198194
0.000204442
0.00020442
0.000179431
0.000184027
0.000198204
0.000204434
0.000204434
0.000184033
0.00018451
0.000186579
0.000205806
0.000205805
0.000208503
0.000208501
0.000184517
0.000186587
0.000205823
0.000205793
0.00020852
0.000208489
0.000205812
0.000208534
0.00020851
0.000184505
0.000186574
0.000205828
0.000208526
0.000208527
0.000186581
0.000186707
0.000187572
0.000209057
0.000209055
0.000210115
0.000210113
0.000186715
0.000187581
0.000209075
0.000209044
0.000210133
0.000210102
0.000209064
0.000210148
0.000210122
0.000186703
0.000187568
0.000209082
0.000210139
0.00021014
0.000187574
0.000187543
0.000187917
0.000210331
0.000210329
0.000210688
0.000210685
0.000187551
0.000187925
0.000210349
0.000210317
0.000210705
0.000210673
0.000210338
0.000210721
0.000210695
0.000187539
0.000187913
0.000210356
0.000210711
0.000210713
0.00018792
0.000187804
0.000188014
0.000210736
0.000210733
0.000210779
0.000210776
0.000187812
0.000188022
0.000210754
0.000210721
0.000210797
0.000210764
0.000210743
0.000210812
0.000210786
0.0001878
0.000188009
0.000210762
0.000210803
0.000210805
0.000188017
0.000187874
0.00018796
0.000210774
0.000210771
0.000210712
0.00021071
0.000187882
0.000187969
0.000210792
0.000210759
0.000210731
0.000210699
0.000210781
0.000210746
0.00021072
0.000187869
0.000187956
0.0002108
0.000210737
0.000210739
0.000187963
0.00018781
0.000187982
0.000210708
0.000210706
0.000210751
0.00021075
0.000187818
0.000187992
0.000210727
0.000210695
0.00021077
0.000210737
0.000210716
0.000210786
0.000210758
0.000187806
0.000187978
0.000210734
0.000210775
0.000210776
0.000187984
0.000187865
0.000188018
0.000210769
0.000210767
0.000210761
0.000210758
0.000187875
0.000188024
0.000210788
0.000210755
0.000210779
0.000210745
0.000210776
0.000210794
0.000210768
0.000187862
0.000188012
0.000210794
0.000210784
0.000210786
0.000188021
0.000187864
0.000187928
0.000210742
0.000210739
0.000210719
0.000210717
0.00018787
0.000187937
0.00021076
0.000210727
0.000210738
0.000210706
0.000210749
0.000210753
0.000210727
0.000187858
0.000187925
0.000210767
0.000210744
0.000210745
0.000187932
0.000187796
0.000188031
0.000210731
0.000210729
0.000210756
0.000210753
0.000187805
0.000188041
0.000210749
0.000210717
0.000210774
0.000210741
0.000210739
0.000210789
0.000210763
0.000187793
0.000188027
0.000210757
0.000210779
0.00021078
0.000188035
0.000187896
0.000187961
0.000210755
0.000210752
0.000210732
0.000210728
0.000187905
0.000187967
0.000210773
0.00021074
0.00021075
0.000210717
0.000210762
0.000210765
0.000210738
0.000187892
0.000187954
0.000210779
0.000210755
0.000210756
0.00018796
0.000187811
0.000187984
0.000210733
0.00021073
0.000210739
0.000210737
0.000187817
0.000187996
0.000210751
0.000210718
0.000210758
0.000210725
0.000210739
0.000210773
0.000210746
0.000187805
0.000187983
0.000210757
0.000210763
0.000210764
0.00018799
0.00018786
0.000188006
0.000210745
0.000210743
0.000210738
0.000210736
0.000187872
0.000188011
0.000210763
0.000210731
0.000210757
0.000210724
0.000210752
0.000210772
0.000210745
0.000187859
0.000187997
0.00021077
0.000210762
0.000210763
0.000188004
0.000187856
0.00018795
0.000210741
0.000210738
0.000210736
0.000210734
0.00018786
0.000187961
0.000210759
0.000210726
0.000210755
0.000210722
0.000210747
0.00021077
0.000210743
0.000187847
0.000187949
0.000210765
0.00021076
0.000210761
0.000187955
0.000187825
0.000188022
0.000210743
0.000210741
0.000210739
0.000210736
0.000187837
0.000188027
0.000210762
0.000210729
0.000210758
0.000210725
0.000210751
0.000210772
0.000210746
0.000187825
0.000188014
0.000210769
0.000210762
0.000210764
0.000188022
0.000187872
0.000187949
0.000210746
0.000210743
0.000210736
0.000210734
0.000187876
0.000187962
0.000210765
0.000210731
0.000210755
0.000210722
0.000210753
0.000210771
0.000210744
0.000187863
0.000187948
0.00021077
0.00021076
0.000210761
0.000187953
0.000187829
0.000188012
0.000210751
0.000210749
0.000210789
0.000210787
0.000187843
0.000188014
0.000210769
0.000210737
0.000210809
0.000210777
0.000210758
0.000210823
0.000210797
0.000187829
0.000188002
0.000210776
0.000210814
0.000210816
0.000188012
0.000187858
0.000189367
0.000210668
0.000210667
0.000213255
0.000213257
0.000187859
0.00018938
0.000210688
0.000210654
0.000213274
0.000213248
0.000210674
0.000213284
0.000213263
0.000187849
0.000189368
0.000210694
0.000213276
0.000213281
0.000189374
0.000191265
0.000211939
0.000211941
0.000191275
0.000211956
0.000211933
0.000233514
0.00023351
0.000233518
0.000211947
0.000191265
0.000211963
2.71749e-05
3.18601e-06
1.66145e-05
1.65599e-05
5.46713e-07
2.42472e-06
1.7325e-06
8.35351e-06
6.9565e-07
2.27226e-06
8.30826e-06
1.26959e-06
2.23787e-06
1.34031e-06
1.68885e-06
1.12086e-06
1.34954e-05
1.03005e-06
1.52756e-05
1.09367e-05
1.32571e-05
1.08154e-06
1.34704e-05
1.01178e-06
1.52418e-05
7.44205e-06
7.52574e-06
7.54042e-06
7.31985e-06
7.30059e-06
7.37643e-06
7.46953e-06
6.83691e-07
5.26627e-07
3.35507e-06
2.22074e-06
6.14149e-07
6.47069e-07
3.31434e-06
1.09848e-05
1.32223e-05
7.03044e-07
2.99824e-06
3.36976e-07
1.9829e-06
7.19772e-07
2.96257e-06
4.45584e-07
1.507e-06
1.4988e-06
2.19239e-06
1.72019e-06
1.71396e-06
1.29747e-06
1.853e-05
1.22358e-06
2.08938e-05
1.72153e-05
1.93161e-05
1.27076e-06
1.85331e-05
1.24076e-06
2.08506e-05
7.33392e-06
7.40494e-06
7.50996e-06
7.46141e-06
7.44726e-06
7.50934e-06
7.63116e-06