/*--------------------------------*- C++ -*----------------------------------*\
| =========                 |                                                 |
| \\      /  F ield         | OpenFOAM: The Open Source CFD Toolbox           |
|  \\    /   O peration     | Version:  v1906                                 |
|   \\  /    A nd           | Web:      www.OpenFOAM.com                      |
|    \\/     M anipulation  |                                                 |
\*---------------------------------------------------------------------------*/
FoamFile
{
    version     2.0;
    format      ascii;
    class       volScalarField;
    location    "300";
    object      p;
}
// * * * * * * * * * * * * * * * * * * * * * * * * * * * * * * * * * * * * * //

dimensions      [0 2 -2 0 0 0 0];


internalField   nonuniform List<scalar> 
171728
(
0.00352417
0.00352313
0.00352312
0.00352384
0.0034886
0.0034871
0.0034872
0.00349002
0.00345046
0.00344846
0.00344851
0.00345077
0.0034063
0.00340459
0.00340464
0.00340684
0.00335798
0.00335647
0.00335651
0.00335884
0.00330919
0.00330778
0.00330779
0.00331017
0.0032612
0.00325994
0.00325995
0.00326228
0.00321392
0.00321279
0.00321283
0.00321517
0.00316752
0.00316652
0.00316652
0.0031689
0.00312223
0.00312135
0.0031213
0.00312373
0.00307783
0.00307704
0.00307699
0.00307944
0.00303413
0.00303346
0.00303344
0.00303588
0.00299105
0.0029905
0.00299049
0.00299289
0.00294835
0.00294791
0.00294775
0.00295022
0.00290595
0.00290566
0.00290563
0.00290785
0.0028639
0.00286358
0.00286364
0.0028659
0.00282217
0.00282178
0.00282192
0.00282412
0.00278079
0.0027806
0.00278067
0.0027828
0.00273981
0.00273973
0.00273966
0.0027418
0.00269917
0.00269901
0.00269888
0.00270105
0.00265882
0.00265875
0.00265859
0.00266065
0.00261882
0.00261881
0.00261861
0.00262056
0.00257909
0.00257914
0.00257911
0.00258076
0.00253963
0.0025396
0.00253953
0.00254142
0.00250041
0.00250035
0.00250039
0.00250238
0.00246145
0.00246172
0.00246151
0.0024631
0.00242258
0.0024226
0.00242282
0.00242475
0.00238412
0.00238444
0.00238451
0.00238655
0.00234582
0.00234605
0.00234594
0.00234779
0.00230764
0.00230797
0.00230797
0.00231017
0.00226971
0.00227007
0.00226999
0.00227186
0.00223179
0.0022322
0.00223218
0.00223442
0.00219428
0.00219461
0.00219459
0.00219637
0.0021566
0.00215697
0.00215713
0.00215912
0.00211939
0.00211994
0.00211964
0.00212169
0.00208195
0.0020823
0.00208244
0.00208422
0.00204493
0.00204505
0.00204525
0.00204726
0.00200791
0.00200841
0.00200829
0.00201009
0.00197121
0.00197133
0.00197136
0.00197335
0.00193436
0.00193467
0.00193465
0.00193662
0.00189794
0.00189791
0.00189794
0.00189994
0.00186152
0.00186191
0.00186167
0.00186364
0.0018254
0.00182507
0.00182544
0.00182745
0.0017892
0.00178921
0.00178895
0.00179103
0.00175305
0.00175328
0.0017533
0.00175541
0.00171759
0.00171718
0.00171727
0.00171925
0.00168152
0.00168145
0.00168142
0.0016835
0.00164601
0.00164589
0.00164588
0.0016479
0.00161049
0.00161027
0.00161028
0.00161237
0.00157537
0.00157509
0.00157506
0.00157704
0.00153987
0.00153965
0.00153964
0.00154173
0.00150491
0.0015046
0.00150463
0.00150663
0.0014698
0.00146955
0.00146948
0.00147152
0.0014349
0.0014345
0.00143457
0.00143652
0.00139992
0.00139971
0.00139968
0.00140171
0.0013651
0.00136492
0.00136487
0.00136682
0.00133053
0.00133005
0.00133025
0.00133217
0.00129585
0.00129569
0.0012955
0.00129744
0.0012613
0.00126106
0.00126115
0.00126314
0.00122685
0.00122667
0.00122662
0.00122848
0.00119276
0.00119241
0.00119239
0.00119434
0.0011583
0.00115801
0.00115809
0.00115987
0.00112462
0.00112463
0.00112465
0.00112652
0.00109066
0.00109015
0.00109012
0.00109202
0.00105536
0.00105506
0.00105505
0.00105688
0.00101998
0.00102025
0.00102027
0.00102234
0.00098647
0.000986692
0.000986704
0.000988731
0.000954916
0.000954489
0.000954493
0.000956155
0.000922783
0.000922021
0.00092202
0.000923578
0.00088918
0.000888695
0.000888695
0.000890451
0.000852059
0.000851806
0.000851808
0.00085386
0.000811419
0.000811885
0.000811885
0.000814412
0.000771724
0.000772623
0.000772622
0.000775189
0.000735144
0.000735566
0.000735561
0.000737803
0.000702278
0.000702216
0.000702214
0.000703984
0.000672048
0.000671475
0.000671475
0.000672942
0.000643064
0.000642772
0.000642772
0.000644278
0.00061265
0.000612494
0.000612494
0.000614211
0.000579409
0.000579324
0.000579324
0.000581231
0.000544326
0.000544277
0.000544277
0.000546289
0.000508373
0.000508345
0.000508345
0.000510406
0.00047206
0.000472037
0.000472037
0.00047412
0.000435622
0.000435596
0.000435596
0.000437683
0.000399143
0.000399117
0.000399117
0.000401207
0.000362644
0.000362617
0.000362617
0.000364707
0.000326147
0.00032612
0.00032612
0.00032821
0.000289644
0.000289616
0.000289616
0.000291706
0.000253143
0.000253115
0.000253115
0.000255203
0.000216641
0.000216615
0.000216615
0.000218702
0.000180139
0.000180113
0.000180113
0.000182196
0.000143637
0.000143612
0.000143612
0.000145688
0.000107128
0.000107107
0.000107106
0.000109166
7.06233e-05
7.05963e-05
7.05954e-05
7.26217e-05
3.48767e-05
3.43031e-05
3.43001e-05
3.61772e-05
6.18308e-06
7.08597e-06
7.08512e-06
5.33966e-06
0.00352859
0.00352616
0.00352614
0.00352861
0.00352616
0.00352617
0.00353256
0.00353257
0.00353254
0.00353257
0.00352616
0.00352618
0.0035286
0.00352619
0.00352614
0.00352861
0.00352383
0.0034948
0.0035231
0.00352312
0.00349665
0.00349678
0.00352387
0.0034948
0.00352311
0.0035231
0.00349662
0.00349659
0.00352311
0.00349665
0.00349666
0.00352383
0.00349475
0.0035231
0.00349654
0.00349667
0.00349479
0.00349002
0.00345629
0.00348714
0.00348717
0.00345857
0.00345858
0.00349003
0.00345629
0.00348715
0.00348717
0.00345856
0.00345859
0.00348716
0.00345857
0.00345863
0.00349002
0.00345631
0.0034871
0.00345857
0.00345863
0.00345629
0.00345078
0.00341304
0.00344845
0.00344846
0.00341615
0.00341616
0.00345078
0.00341302
0.00344847
0.00344845
0.00341615
0.00341612
0.00344845
0.00341616
0.00341614
0.00345081
0.00341306
0.00344843
0.00341611
0.00341618
0.00341303
0.00340684
0.00336532
0.00340458
0.0034046
0.0033687
0.00336872
0.00340683
0.00336535
0.00340458
0.00340461
0.00336871
0.00336871
0.00340467
0.0033687
0.00336879
0.00340687
0.00336534
0.00340459
0.00336869
0.0033687
0.00336533
0.00335884
0.0033166
0.00335646
0.00335647
0.00331989
0.00331989
0.00335885
0.00331659
0.00335648
0.00335648
0.0033199
0.00331992
0.00335644
0.00331989
0.00331985
0.00335886
0.0033166
0.00335648
0.00331993
0.00331988
0.00331661
0.00331017
0.00326858
0.00330781
0.00330778
0.00327181
0.0032718
0.00331016
0.00326858
0.00330778
0.0033078
0.00327183
0.0032718
0.00330768
0.0032718
0.00327172
0.00331018
0.00326859
0.00330778
0.00327183
0.0032718
0.00326858
0.0032623
0.00322137
0.00325995
0.00325994
0.00322453
0.00322455
0.00326228
0.00322135
0.00325995
0.00325996
0.00322454
0.00322452
0.00325985
0.00322454
0.0032245
0.00326231
0.00322137
0.00325992
0.0032245
0.00322454
0.00322136
0.00321518
0.00317495
0.0032128
0.00321279
0.00317798
0.00317798
0.00321515
0.00317497
0.00321277
0.00321281
0.00317794
0.00317797
0.00321274
0.00317798
0.00317796
0.0032152
0.00317496
0.00321281
0.003178
0.00317796
0.00317494
0.00316891
0.00312962
0.00316652
0.00316652
0.00313255
0.00313254
0.00316892
0.00312962
0.0031665
0.00316651
0.0031325
0.00313254
0.0031665
0.00313253
0.00313253
0.00316892
0.00312962
0.00316652
0.00313257
0.00313256
0.00312964
0.00312371
0.00308522
0.00312134
0.00312135
0.00308804
0.00308804
0.00312374
0.00308521
0.00312131
0.00312133
0.00308804
0.00308805
0.00312133
0.00308804
0.00308805
0.00312372
0.00308521
0.00312137
0.00308802
0.00308804
0.00308523
0.00307944
0.00304152
0.00307705
0.00307705
0.00304426
0.00304432
0.00307943
0.00304153
0.00307701
0.00307701
0.00304429
0.0030443
0.00307705
0.00304431
0.00304431
0.00307943
0.00304153
0.00307707
0.00304425
0.00304429
0.00304157
0.00303583
0.00299846
0.00303347
0.00303347
0.0030012
0.0030012
0.00303584
0.00299843
0.00303346
0.00303348
0.00300118
0.00300121
0.00303348
0.0030012
0.00300116
0.00303583
0.00299842
0.00303348
0.00300113
0.00300116
0.00299849
0.00299286
0.00295577
0.00299052
0.00299051
0.00295851
0.00295853
0.00299283
0.00295573
0.00299054
0.00299053
0.0029585
0.0029585
0.00299052
0.00295853
0.00295841
0.00299282
0.00295578
0.00299051
0.00295849
0.00295838
0.00295574
0.00295027
0.00291343
0.00294796
0.00294792
0.00291616
0.00291617
0.00295018
0.00291342
0.00294796
0.00294782
0.00291615
0.00291609
0.00294791
0.00291616
0.00291611
0.00295017
0.00291344
0.00294788
0.00291613
0.00291611
0.00291333
0.00290796
0.00287136
0.00290561
0.00290566
0.00287407
0.00287399
0.00290794
0.00287131
0.00290559
0.00290557
0.00287408
0.00287406
0.00290547
0.00287399
0.0028741
0.00290796
0.00287129
0.0029055
0.00287407
0.00287411
0.00287138
0.00286595
0.00282957
0.00286362
0.00286359
0.00283226
0.00283231
0.00286592
0.00282951
0.00286361
0.00286365
0.00283226
0.00283234
0.00286356
0.00283229
0.00283222
0.00286589
0.00282959
0.00286356
0.00283223
0.00283219
0.0028295
0.00282421
0.00278804
0.00282193
0.00282179
0.00279082
0.00279096
0.0028241
0.00278813
0.00282193
0.00282199
0.00279081
0.00279091
0.0028218
0.00279094
0.00279086
0.00282422
0.00278814
0.00282178
0.00279089
0.00279084
0.0027881
0.0027827
0.00274692
0.00278052
0.00278055
0.00274992
0.00274985
0.00278279
0.00274708
0.00278051
0.00278062
0.00274991
0.00274968
0.00278063
0.00274987
0.00274979
0.00278284
0.00274709
0.00278063
0.00274981
0.00274978
0.00274701
0.00274167
0.00270625
0.00273956
0.00273974
0.00270917
0.00270905
0.00274186
0.00270621
0.00273955
0.00273963
0.00270916
0.00270904
0.00273967
0.00270904
0.0027091
0.00274185
0.00270626
0.00273965
0.00270918
0.00270908
0.00270625
0.00270109
0.00266578
0.00269911
0.002699
0.00266866
0.00266881
0.00270103
0.00266566
0.00269907
0.00269902
0.00266857
0.00266866
0.00269897
0.00266879
0.00266877
0.00270103
0.00266576
0.00269898
0.00266881
0.00266881
0.00266583
0.00266058
0.00262566
0.00265869
0.00265873
0.00262866
0.00262874
0.0026606
0.00262546
0.0026587
0.00265878
0.00262858
0.00262869
0.00265867
0.00262873
0.00262868
0.0026606
0.0026256
0.00265867
0.00262884
0.00262874
0.00262567
0.00262045
0.00258587
0.00261864
0.0026188
0.00258905
0.00258896
0.00262049
0.00258573
0.00261867
0.00261873
0.00258905
0.00258904
0.00261871
0.00258896
0.00258892
0.00262051
0.00258591
0.0026187
0.00258908
0.00258898
0.00258584
0.00258081
0.0025463
0.00257904
0.00257911
0.00254941
0.00254936
0.00258078
0.00254623
0.00257909
0.00257919
0.00254947
0.00254937
0.002579
0.00254936
0.00254956
0.00258098
0.00254626
0.00257898
0.00254938
0.00254959
0.00254643
0.00254139
0.00250714
0.00253966
0.00253956
0.00251019
0.00251032
0.00254121
0.00250728
0.00253971
0.00253961
0.00251027
0.00251031
0.00253968
0.00251029
0.00251025
0.00254123
0.00250733
0.00253961
0.0025103
0.00251028
0.00250721
0.00250206
0.00246846
0.00250034
0.00250033
0.00247133
0.00247143
0.00250209
0.00246903
0.00250041
0.00250048
0.00247138
0.0024713
0.00250058
0.0024714
0.00247115
0.00250226
0.00246827
0.00250053
0.00247133
0.0024712
0.00246801
0.0024634
0.00242971
0.00246148
0.00246173
0.00243254
0.00243232
0.00246419
0.00242904
0.00246157
0.00246163
0.00243252
0.00243246
0.00246152
0.00243229
0.00243253
0.00246339
0.00242959
0.00246149
0.00243255
0.0024326
0.00242989
0.00242488
0.00239105
0.00242284
0.00242262
0.00239393
0.00239411
0.00242391
0.0023921
0.00242289
0.00242285
0.00239393
0.00239397
0.00242276
0.00239413
0.00239404
0.00242466
0.00239121
0.00242281
0.00239403
0.00239401
0.00239126
0.00238607
0.00235297
0.00238433
0.00238443
0.00235565
0.00235559
0.00238721
0.00235256
0.00238433
0.00238439
0.00235561
0.00235558
0.00238445
0.00235557
0.00235561
0.00238628
0.00235314
0.00238448
0.00235545
0.00235558
0.00235278
0.0023481
0.00231512
0.00234612
0.00234609
0.00231744
0.0023175
0.00234763
0.00231509
0.00234609
0.00234605
0.00231749
0.00231746
0.00234609
0.00231753
0.00231746
0.00234818
0.0023149
0.00234604
0.00231749
0.00231748
0.0023151
0.0023101
0.00227675
0.00230789
0.00230796
0.00227952
0.00227947
0.00231013
0.00227678
0.00230792
0.00230792
0.00227953
0.00227957
0.00230798
0.00227947
0.00227943
0.00230995
0.00227706
0.002308
0.00227952
0.00227945
0.00227681
0.00227195
0.0022391
0.00227004
0.00227003
0.00224161
0.0022417
0.00227191
0.00223918
0.00227008
0.0022701
0.00224156
0.00224158
0.00226999
0.00224168
0.00224173
0.00227222
0.00223918
0.00227001
0.00224165
0.00224176
0.00223925
0.00223407
0.00220146
0.00223217
0.00223222
0.00220406
0.00220409
0.00223428
0.00220154
0.00223214
0.00223209
0.00220404
0.002204
0.00223228
0.00220404
0.00220394
0.0022342
0.00220114
0.00223231
0.00220396
0.00220388
0.00220125
0.00219663
0.00216391
0.00219469
0.00219467
0.00216637
0.00216629
0.00219659
0.00216383
0.00219467
0.00219463
0.00216642
0.00216646
0.00219457
0.00216636
0.00216643
0.00219635
0.00216399
0.00219453
0.00216651
0.00216646
0.00216394
0.00215897
0.00212641
0.00215699
0.0021569
0.00212904
0.0021292
0.00215898
0.00212662
0.00215703
0.00215704
0.00212903
0.00212898
0.00215705
0.0021292
0.00212911
0.00215908
0.00212648
0.0021571
0.00212894
0.00212911
0.00212655
0.00212156
0.00208933
0.00211972
0.00211997
0.00209181
0.00209183
0.00212179
0.00208913
0.0021197
0.00211971
0.00209174
0.00209176
0.00211984
0.0020918
0.0020917
0.00212161
0.00208915
0.00211979
0.00209176
0.00209167
0.0020891
0.00208441
0.00205191
0.0020825
0.00208229
0.00205445
0.00205424
0.00208419
0.00205185
0.00208247
0.00208241
0.00205449
0.00205449
0.0020823
0.00205425
0.00205442
0.00208426
0.0020521
0.00208229
0.00205449
0.00205446
0.00205205
0.00204707
0.00201505
0.00204513
0.00204505
0.00201747
0.00201761
0.00204704
0.00201532
0.00204517
0.00204528
0.00201745
0.00201752
0.00204525
0.00201762
0.0020176
0.00204726
0.00201497
0.00204528
0.00201755
0.0020176
0.00201504
0.00201019
0.00197814
0.00200832
0.00200839
0.00198059
0.00198057
0.00201042
0.0019781
0.00200829
0.00200824
0.00198063
0.00198055
0.00200833
0.00198055
0.00198055
0.00201008
0.00197823
0.00200831
0.00198054
0.00198056
0.0019782
0.00197326
0.00194147
0.00197131
0.00197134
0.00194377
0.00194385
0.00197327
0.00194155
0.00197135
0.00197138
0.00194376
0.00194381
0.00197133
0.00194388
0.00194376
0.00197341
0.00194144
0.00197134
0.00194381
0.00194375
0.00194144
0.00193668
0.00190476
0.00193468
0.00193465
0.00190714
0.00190699
0.00193666
0.00190468
0.00193467
0.00193464
0.00190715
0.00190716
0.00193464
0.00190699
0.0019072
0.0019366
0.00190481
0.00193464
0.00190715
0.00190721
0.00190483
0.0018999
0.0018685
0.00189792
0.00189792
0.00187071
0.00187094
0.00189991
0.00186878
0.00189794
0.00189795
0.0018707
0.00187064
0.00189796
0.00187094
0.00187061
0.00189994
0.00186844
0.00189797
0.00187065
0.0018706
0.00186838
0.00186375
0.00183219
0.00186174
0.00186191
0.00183451
0.00183428
0.00186398
0.0018319
0.00186172
0.00186166
0.00183452
0.00183464
0.00186164
0.00183429
0.00183462
0.00186368
0.00183238
0.00186163
0.00183464
0.00183459
0.00183236
0.0018273
0.00179585
0.00182532
0.00182506
0.00179802
0.00179813
0.00182708
0.00179597
0.00182535
0.00182545
0.00179803
0.00179794
0.00182544
0.00179812
0.00179798
0.00182745
0.00179572
0.00182544
0.00179793
0.001798
0.00179578
0.00179109
0.0017602
0.00178907
0.00178922
0.00176226
0.00176228
0.00179121
0.00176025
0.00178904
0.00178894
0.00176223
0.00176222
0.00178899
0.0017623
0.00176222
0.00179097
0.00176017
0.00178901
0.00176221
0.0017622
0.00176017
0.00175541
0.00172395
0.00175329
0.00175327
0.00172617
0.00172623
0.00175546
0.00172396
0.00175326
0.0017533
0.00172622
0.00172635
0.00175329
0.00172619
0.00172633
0.00175541
0.00172407
0.00175328
0.00172638
0.00172634
0.00172405
0.00171918
0.00168836
0.00171715
0.00171719
0.0016904
0.0016903
0.00171918
0.00168829
0.00171718
0.00171726
0.00169043
0.00169033
0.00171725
0.00169036
0.00169031
0.00171925
0.00168827
0.00171725
0.00169029
0.00169031
0.00168826
0.00168359
0.00165258
0.00168153
0.00168142
0.00165474
0.00165484
0.00168355
0.00165268
0.00168153
0.00168145
0.00165467
0.00165473
0.0016814
0.00165481
0.00165477
0.00168352
0.00165266
0.00168143
0.00165476
0.00165475
0.00165266
0.00164783
0.00161719
0.00164577
0.00164593
0.0016192
0.00161908
0.00164791
0.00161709
0.00164571
0.00164583
0.00161926
0.00161923
0.00164587
0.00161909
0.00161918
0.00164791
0.00161711
0.00164585
0.0016192
0.0016192
0.00161711
0.00161245
0.0015817
0.00161041
0.00161029
0.00158382
0.00158393
0.00161238
0.0015818
0.00161047
0.00161034
0.00158379
0.00158379
0.00161029
0.00158393
0.00158383
0.00161235
0.00158178
0.00161034
0.0015838
0.00158382
0.00158176
0.00157695
0.0015465
0.0015749
0.00157502
0.00154849
0.00154842
0.00157705
0.00154645
0.00157486
0.00157501
0.0015485
0.00154854
0.00157503
0.00154845
0.00154851
0.00157706
0.00154645
0.001575
0.00154856
0.0015485
0.00154646
0.00154179
0.00151132
0.00153978
0.00153971
0.0015134
0.00151344
0.00154174
0.00151132
0.00153978
0.00153965
0.00151341
0.00151332
0.00153968
0.00151338
0.00151337
0.00154171
0.00151133
0.00153968
0.00151331
0.00151337
0.00151133
0.00150658
0.00147622
0.00150452
0.00150457
0.00147823
0.0014782
0.00150659
0.00147625
0.00150456
0.00150462
0.00147825
0.00147834
0.00150463
0.00147828
0.00147828
0.00150664
0.00147624
0.00150463
0.00147837
0.0014783
0.00147624
0.00147152
0.00144129
0.00146956
0.00146954
0.00144336
0.00144343
0.00147155
0.00144126
0.00146953
0.00146948
0.00144334
0.00144325
0.0014695
0.00144331
0.00144326
0.00147149
0.00144124
0.0014695
0.00144321
0.00144324
0.00144121
0.00143658
0.00140631
0.00143455
0.00143458
0.00140833
0.00140823
0.00143653
0.00140631
0.00143459
0.0014346
0.00140835
0.00140843
0.00143452
0.00140832
0.00140843
0.00143657
0.00140637
0.00143453
0.00140846
0.00140845
0.0014064
0.00140161
0.00137149
0.00139966
0.00139961
0.00137357
0.00137376
0.00140166
0.00137165
0.00139962
0.00139962
0.00137348
0.0013735
0.00139974
0.00137374
0.00137356
0.00140164
0.00137149
0.00139972
0.00137351
0.00137349
0.0013715
0.00136681
0.00133688
0.00136485
0.001365
0.00133884
0.00133875
0.0013669
0.0013367
0.00136484
0.00136487
0.00133898
0.00133899
0.00136484
0.00133868
0.00133887
0.00136682
0.00133692
0.00136483
0.00133896
0.001339
0.00133685
0.0013322
0.00130218
0.00133021
0.0013301
0.00130427
0.00130429
0.00133205
0.00130224
0.00133031
0.00133027
0.00130421
0.00130414
0.00133021
0.00130429
0.00130413
0.00133222
0.0013021
0.00133032
0.00130411
0.00130408
0.00130209
0.0012975
0.00126759
0.00129562
0.00129563
0.00126966
0.00126965
0.00129758
0.00126766
0.00129554
0.00129552
0.00126962
0.00126969
0.00129553
0.00126973
0.00126983
0.00129743
0.00126769
0.00129545
0.00126977
0.00126979
0.00126779
0.00126293
0.00123325
0.00126101
0.00126102
0.00123525
0.00123529
0.00126299
0.00123323
0.00126098
0.00126106
0.00123524
0.00123523
0.00126122
0.0012352
0.00123514
0.00126303
0.00123319
0.00126121
0.00123519
0.00123516
0.00123311
0.00122863
0.00119897
0.00122672
0.00122676
0.00120103
0.001201
0.0012286
0.00119894
0.00122672
0.00122668
0.00120109
0.00120103
0.00122658
0.00120106
0.00120102
0.00122856
0.00119897
0.00122659
0.001201
0.00120102
0.00119899
0.00119428
0.0011645
0.00119236
0.00119234
0.00116652
0.00116651
0.00119427
0.00116449
0.00119242
0.00119239
0.00116653
0.00116656
0.00119243
0.00116651
0.00116653
0.0011943
0.00116453
0.00119244
0.00116657
0.00116654
0.0011645
0.0011599
0.00113109
0.00115805
0.00115804
0.00113299
0.00113298
0.00115988
0.00113106
0.00115805
0.00115808
0.00113298
0.001133
0.00115801
0.00113293
0.0011329
0.00115992
0.00113108
0.00115801
0.00113297
0.00113291
0.001131
0.0011266
0.00109668
0.00112467
0.00112466
0.00109887
0.00109891
0.00112657
0.00109674
0.00112466
0.00112466
0.00109884
0.00109883
0.0011246
0.00109895
0.00109899
0.00112658
0.00109669
0.0011246
0.00109889
0.00109899
0.00109679
0.00109193
0.00106166
0.0010901
0.00109013
0.00106383
0.00106384
0.00109197
0.00106166
0.00109008
0.00109008
0.00106383
0.00106383
0.00109018
0.00106384
0.00106384
0.00109194
0.00106165
0.00109018
0.00106383
0.00106384
0.00106166
0.0010569
0.00102705
0.00105506
0.00105507
0.00102886
0.00102885
0.00105689
0.00102703
0.00105507
0.00105506
0.00102888
0.00102888
0.00105505
0.00102884
0.00102881
0.00105689
0.00102705
0.00105505
0.00102885
0.00102881
0.001027
0.00102239
0.000993204
0.00102027
0.00102026
0.00099495
0.000994936
0.00102236
0.000993195
0.00102029
0.00102029
0.000994964
0.000994964
0.00102023
0.000994951
0.000994952
0.00102238
0.000993215
0.00102022
0.000994962
0.000994952
0.000993207
0.000988724
0.000960565
0.000986692
0.000986676
0.000962572
0.000962567
0.000988717
0.000960574
0.000986702
0.000986699
0.000962571
0.00096257
0.0009867
0.000962581
0.000962603
0.000988736
0.000960576
0.000986701
0.000962589
0.000962606
0.000960608
0.000956112
0.00092795
0.000954478
0.00095448
0.000930083
0.00093009
0.000956122
0.000927952
0.000954474
0.000954478
0.000930077
0.000930083
0.000954518
0.000930081
0.000930091
0.000956119
0.000927948
0.000954523
0.00093008
0.000930094
0.000927953
0.000923579
0.000895144
0.000922027
0.000922033
0.00089731
0.000897308
0.000923579
0.000895139
0.00092202
0.000922025
0.000897307
0.000897303
0.000922025
0.000897301
0.000897294
0.000923576
0.000895137
0.000922028
0.0008973
0.000897295
0.000895129
0.000890466
0.000859105
0.000888704
0.0008887
0.000861395
0.00086139
0.00089046
0.000859103
0.000888702
0.000888697
0.000861395
0.000861389
0.000888687
0.000861398
0.00086138
0.000890459
0.000859103
0.000888688
0.0008614
0.000861381
0.000859092
0.000853871
0.000819789
0.000851809
0.000851806
0.000821852
0.00082185
0.000853868
0.000819788
0.000851809
0.000851805
0.000821851
0.000821852
0.000851796
0.000821849
0.000821846
0.000853868
0.00081979
0.000851797
0.000821849
0.000821845
0.000819785
0.000814415
0.000780472
0.000811885
0.000811885
0.000782341
0.000782341
0.000814414
0.000780473
0.000811885
0.000811887
0.000782342
0.000782342
0.000811883
0.000782343
0.000782345
0.000814416
0.000780472
0.000811881
0.000782342
0.000782343
0.000780475
0.000775185
0.000742662
0.000772621
0.000772621
0.000744498
0.000744498
0.000775186
0.000742664
0.000772621
0.000772622
0.000744496
0.000744496
0.000772625
0.0007445
0.0007445
0.000775187
0.000742661
0.000772624
0.000744497
0.0007445
0.000742664
0.000737802
0.000708352
0.000735565
0.000735567
0.000710221
0.000710219
0.000737804
0.000708352
0.000735563
0.000735561
0.000710219
0.000710216
0.000735566
0.000710221
0.000710221
0.0007378
0.000708348
0.000735568
0.000710217
0.000710219
0.000708352
0.000703984
0.000676983
0.000702217
0.000702216
0.000678929
0.000678929
0.000703984
0.000676984
0.000702216
0.000702213
0.000678929
0.000678928
0.000702217
0.000678929
0.000678929
0.000703981
0.000676983
0.000702216
0.000678928
0.000678929
0.000676983
0.000672943
0.000648166
0.000671476
0.000671476
0.000649954
0.000649954
0.000672942
0.000648167
0.000671475
0.000671475
0.000649954
0.000649954
0.000671475
0.000649954
0.000649954
0.000672942
0.000648166
0.000671476
0.000649954
0.000649954
0.000648166
0.000644278
0.000618488
0.000642773
0.000642772
0.000620348
0.000620349
0.000644278
0.000618489
0.000642772
0.000642773
0.00062035
0.000620349
0.000642772
0.000620349
0.000620349
0.000644278
0.000618489
0.000642772
0.000620351
0.000620349
0.000618488
0.00061421
0.000585869
0.000612492
0.000612494
0.000587842
0.000587843
0.000614211
0.000585869
0.000612492
0.000612492
0.000587842
0.000587843
0.000612492
0.000587843
0.000587843
0.000614211
0.000585867
0.000612494
0.000587842
0.000587842
0.000585869
0.000581231
0.000551114
0.000579325
0.000579325
0.000553151
0.000553152
0.000581231
0.000551115
0.000579325
0.000579324
0.000553151
0.000553152
0.000579325
0.000553151
0.000553152
0.000581229
0.000551114
0.000579324
0.000553151
0.000553152
0.000551114
0.000546289
0.000515314
0.000544277
0.000544277
0.000517377
0.000517377
0.000546289
0.000515314
0.000544277
0.000544277
0.000517377
0.000517377
0.000544278
0.000517377
0.000517377
0.000546289
0.000515314
0.000544278
0.000517377
0.000517377
0.000515314
0.000510406
0.00047906
0.000508345
0.000508345
0.000481133
0.000481133
0.000510406
0.000479061
0.000508345
0.000508345
0.000481133
0.000481133
0.000508345
0.000481133
0.000481133
0.000510406
0.00047906
0.000508345
0.000481133
0.000481133
0.00047906
0.00047412
0.000442634
0.000472037
0.000472037
0.00044471
0.00044471
0.000474119
0.000442634
0.000472037
0.000472037
0.00044471
0.00044471
0.000472037
0.00044471
0.00044471
0.00047412
0.000442634
0.000472037
0.00044471
0.00044471
0.000442634
0.000437683
0.000406161
0.000435596
0.000435596
0.000408239
0.000408239
0.000437683
0.000406161
0.000435596
0.000435596
0.000408239
0.000408239
0.000435596
0.000408239
0.000408239
0.000437683
0.000406161
0.000435596
0.000408239
0.000408239
0.000406161
0.000401207
0.000369663
0.000399117
0.000399117
0.000371741
0.000371741
0.000401206
0.000369663
0.000399117
0.000399117
0.000371741
0.000371741
0.000399117
0.000371741
0.000371741
0.000401207
0.000369663
0.000399117
0.000371741
0.000371741
0.000369663
0.000364707
0.000333165
0.000362617
0.000362617
0.000335243
0.000335243
0.000364707
0.000333165
0.000362617
0.000362617
0.000335243
0.000335243
0.000362617
0.000335243
0.000335243
0.000364707
0.000333165
0.000362617
0.000335243
0.000335243
0.000333165
0.00032821
0.000296664
0.00032612
0.00032612
0.000298742
0.000298741
0.00032821
0.000296664
0.00032612
0.00032612
0.000298742
0.000298741
0.00032612
0.000298742
0.000298742
0.00032821
0.000296663
0.00032612
0.000298742
0.000298742
0.000296664
0.000291706
0.00026016
0.000289616
0.000289616
0.000262238
0.000262237
0.000291706
0.00026016
0.000289616
0.000289616
0.000262237
0.000262237
0.000289617
0.000262238
0.000262238
0.000291706
0.00026016
0.000289616
0.000262238
0.000262238
0.00026016
0.000255203
0.000223662
0.000253116
0.000253116
0.000225738
0.000225738
0.000255203
0.000223662
0.000253115
0.000253116
0.000225738
0.000225738
0.000253116
0.000225738
0.000225739
0.000255203
0.000223661
0.000253116
0.000225738
0.000225738
0.000223662
0.000218702
0.000187158
0.000216615
0.000216615
0.000189234
0.000189234
0.000218702
0.000187159
0.000216615
0.000216615
0.000189234
0.000189234
0.000216615
0.000189234
0.000189234
0.000218702
0.000187158
0.000216615
0.000189234
0.000189234
0.000187158
0.000182196
0.00015066
0.000180113
0.000180113
0.000152733
0.000152733
0.000182195
0.000150661
0.000180113
0.000180113
0.000152732
0.000152732
0.000180114
0.000152733
0.000152733
0.000182196
0.00015066
0.000180113
0.000152732
0.000152733
0.00015066
0.000145688
0.000114157
0.000143612
0.000143612
0.000116226
0.000116226
0.000145688
0.000114157
0.000143612
0.000143612
0.000116225
0.000116225
0.000143612
0.000116226
0.000116225
0.000145688
0.000114156
0.000143612
0.000116225
0.000116225
0.000114156
0.000109166
7.76502e-05
0.000107107
0.000107107
7.9713e-05
7.97127e-05
0.000109166
7.76508e-05
0.000107106
0.000107106
7.97125e-05
7.97123e-05
0.000107106
7.97127e-05
7.9712e-05
0.000109165
7.76494e-05
0.000107106
7.97124e-05
7.97123e-05
7.76493e-05
7.26227e-05
4.11802e-05
7.05968e-05
7.05965e-05
4.32404e-05
4.32411e-05
7.26222e-05
4.11816e-05
7.05959e-05
7.05955e-05
4.32385e-05
4.32376e-05
7.05957e-05
4.32395e-05
4.32372e-05
7.26223e-05
4.11775e-05
7.05956e-05
4.3237e-05
4.32359e-05
4.11772e-05
3.61808e-05
8.58195e-06
3.43044e-05
3.4305e-05
1.16094e-05
1.16094e-05
3.61813e-05
8.5824e-06
3.43027e-05
3.43009e-05
1.16103e-05
1.1604e-05
3.43001e-05
1.16095e-05
1.16026e-05
3.6178e-05
8.5789e-06
3.42994e-05
1.16077e-05
1.1608e-05
8.57787e-06
5.34212e-06
7.08511e-06
7.08502e-06
5.34337e-06
7.08538e-06
7.08135e-06
6.18283e-06
6.18236e-06
6.18159e-06
7.08077e-06
5.34116e-06
7.08458e-06
0.00353567
0.00353821
0.003537
0.003537
0.00356447
0.00353816
0.00356772
0.00353843
0.00356444
0.00353822
0.00353843
0.00356771
0.00354922
0.00357098
0.00357135
0.00350817
0.00352191
0.0035257
0.00350043
0.00349836
0.00350364
0.00350815
0.00352181
0.00352559
0.00350041
0.00352419
0.00352415
0.00352417
0.00349767
0.00349765
0.00349765
0.00349767
0.0035079
0.00351953
0.00352476
0.00351545
0.00352692
0.00350501
0.00351574
0.00349869
0.00350381
0.0035079
0.00352473
0.00351948
0.00351536
0.00352684
0.00351568
0.00350488
0.00352582
0.00352558
0.00351271
0.00350489
0.00350485
0.00348071
0.00349492
0.00349466
0.00347875
0.0034921
0.00347772
0.00348086
0.00349486
0.00349458
0.00347875
0.00348858
0.00348859
0.00348859
0.00346051
0.00346051
0.00346051
0.0034605
0.00347854
0.00349341
0.00348704
0.00347782
0.00349186
0.00347902
0.00347779
0.00349207
0.00347776
0.00347851
0.00348706
0.00349347
0.00347773
0.00349186
0.00347774
0.00347904
0.00349514
0.0034951
0.00347623
0.00347939
0.00347936
0.00343826
0.00345307
0.00345387
0.00343705
0.00345179
0.00343634
0.0034385
0.00345307
0.00345391
0.00343705
0.00345046
0.00345047
0.00345045
0.00341789
0.00341789
0.00341789
0.00341788
0.00343715
0.00345265
0.00344845
0.0034381
0.00345156
0.0034375
0.0034381
0.00345189
0.0034362
0.00343716
0.00344846
0.00345269
0.00343813
0.00345157
0.00343813
0.00343758
0.00345335
0.00345332
0.00343539
0.00343735
0.00343735
0.00339189
0.00340842
0.00340986
0.00339047
0.00340752
0.00339016
0.00339188
0.00340844
0.00340995
0.00339046
0.00340629
0.00340629
0.00340629
0.00337021
0.00337022
0.00337021
0.0033702
0.00339112
0.00340825
0.00340459
0.00339283
0.00340769
0.00339119
0.0033928
0.00340777
0.00338996
0.00339113
0.00340459
0.0034083
0.00339281
0.00340767
0.00339278
0.00339118
0.00340844
0.00340851
0.00338952
0.00339075
0.00339071
0.00334291
0.00335998
0.00336124
0.00334168
0.00335957
0.00334128
0.00334297
0.00336001
0.00336127
0.00334168
0.00335798
0.00335797
0.00335798
0.00332132
0.00332132
0.00332132
0.00332133
0.00334249
0.00336001
0.00335647
0.0033443
0.00335967
0.00334239
0.00334429
0.00335963
0.00334135
0.00334247
0.00335649
0.00336005
0.0033443
0.00335968
0.0033443
0.00334239
0.00336006
0.0033601
0.00334092
0.00334179
0.00334174
0.00329392
0.00331112
0.00331209
0.00329301
0.00331083
0.00329277
0.00329389
0.00331111
0.00331209
0.003293
0.00330919
0.00330918
0.00330919
0.00327312
0.00327312
0.00327311
0.00327312
0.00329385
0.00331112
0.00330779
0.00329572
0.00331086