/*--------------------------------*- C++ -*----------------------------------*\
| =========                 |                                                 |
| \\      /  F ield         | OpenFOAM: The Open Source CFD Toolbox           |
|  \\    /   O peration     | Version:  v1906                                 |
|   \\  /    A nd           | Web:      www.OpenFOAM.com                      |
|    \\/     M anipulation  |                                                 |
\*---------------------------------------------------------------------------*/
FoamFile
{
    version     2.0;
    format      ascii;
    class       volScalarField;
    location    "250";
    object      epsilon;
}
// * * * * * * * * * * * * * * * * * * * * * * * * * * * * * * * * * * * * * //

dimensions      [0 2 -3 0 0 0 0];


internalField   nonuniform List<scalar> 
171728
(
6.20658e-09
4.72728e-09
7.12125e-09
4.94508e-09
6.16465e-09
4.30936e-09
5.41273e-09
4.4762e-09
6.18419e-09
3.93553e-09
4.40317e-09
4.06597e-09
6.20777e-09
3.61606e-09
3.79292e-09
3.72078e-09
6.23787e-09
3.34781e-09
3.36422e-09
3.43325e-09
6.27503e-09
3.1276e-09
3.0538e-09
3.19042e-09
6.32405e-09
2.95126e-09
2.85836e-09
2.98004e-09
6.38125e-09
2.81812e-09
2.78156e-09
2.80665e-09
6.44862e-09
2.72526e-09
2.78994e-09
2.67179e-09
6.52523e-09
2.66957e-09
2.90007e-09
2.56961e-09
6.60974e-09
2.65782e-09
3.02363e-09
2.49993e-09
6.70373e-09
2.68721e-09
3.1334e-09
2.47126e-09
6.8057e-09
2.76643e-09
3.25654e-09
2.48621e-09
6.91485e-09
2.90783e-09
3.51223e-09
2.5552e-09
7.03187e-09
3.13933e-09
3.89434e-09
2.69907e-09
7.15428e-09
3.48454e-09
4.34199e-09
2.97486e-09
7.28295e-09
4.00724e-09
4.834e-09
3.44728e-09
7.41814e-09
4.7859e-09
5.65567e-09
4.21492e-09
7.56509e-09
5.96436e-09
6.59797e-09
5.61077e-09
7.72945e-09
7.71578e-09
8.25355e-09
8.08378e-09
7.90814e-09
1.01687e-08
1.13845e-08
1.21122e-08
8.1156e-09
1.36045e-08
1.41665e-08
1.93902e-08
8.35268e-09
2.19439e-08
1.85322e-08
3.34832e-08
8.64796e-09
2.49578e-08
2.59634e-08
4.80729e-08
8.98093e-09
3.44402e-08
3.39934e-08
7.27563e-08
9.4361e-09
4.72843e-08
4.79567e-08
1.28731e-07
9.95447e-09
6.02895e-08
5.8856e-08
1.49149e-07
1.0626e-08
7.73384e-08
7.88321e-08
2.44526e-07
1.15516e-08
9.77308e-08
9.65971e-08
2.97448e-07
1.26335e-08
1.22834e-07
1.21167e-07
3.80455e-07
1.42502e-08
1.48771e-07
1.51152e-07
4.58361e-07
1.57338e-08
1.71292e-07
1.75815e-07
5.30868e-07
1.83216e-08
2.1766e-07
2.11796e-07
6.03225e-07
2.09373e-08
2.47683e-07
2.51193e-07
6.78054e-07
2.41052e-08
2.8417e-07
2.828e-07
7.18427e-07
2.88116e-08
3.28996e-07
3.29794e-07
7.773e-07
3.38736e-08
3.72916e-07
3.73365e-07
8.2277e-07
4.0636e-08
4.20539e-07
4.2025e-07
8.63965e-07
4.75777e-08
4.67907e-07
4.68566e-07
9.02509e-07
5.73889e-08
5.15853e-07
5.15616e-07
9.37689e-07
6.72637e-08
5.66314e-07
5.6742e-07
9.7103e-07
7.99195e-08
6.14568e-07
6.10247e-07
1.00155e-06
9.3318e-08
6.62079e-07
6.63592e-07
1.03316e-06
1.09181e-07
7.10442e-07
7.06999e-07
1.06114e-06
1.26904e-07
7.50781e-07
7.55057e-07
1.08988e-06
1.47059e-07
7.96313e-07
7.94271e-07
1.11641e-06
1.67991e-07
8.37716e-07
8.36422e-07
1.14214e-06
1.90986e-07
8.73323e-07
8.72964e-07
1.16752e-06
2.16447e-07
9.09232e-07
9.06227e-07
1.18446e-06
2.41764e-07
9.33236e-07
9.34544e-07
1.20409e-06
2.69705e-07
9.62646e-07
9.64187e-07
1.22267e-06
2.96189e-07
9.76752e-07
9.77161e-07
1.23331e-06
3.12877e-07
9.82042e-07
9.82002e-07
1.22755e-06
3.47467e-07
1.01554e-06
1.01522e-06
1.25868e-06
3.97022e-07
1.05429e-06
1.05392e-06
1.30358e-06
4.25275e-07
1.07063e-06
1.07042e-06
1.32413e-06
4.28062e-07
1.05886e-06
1.05878e-06
1.30524e-06
4.09449e-07
1.02591e-06
1.02597e-06
1.25598e-06
3.93154e-07
9.9611e-07
9.96212e-07
1.21147e-06
3.94484e-07
9.83241e-07
9.83323e-07
1.18828e-06
4.31403e-07
1.0082e-06
1.00827e-06
1.21899e-06
4.93451e-07
1.05374e-06
1.05383e-06
1.2767e-06
5.40409e-07
1.08898e-06
1.08906e-06
1.32533e-06
5.66346e-07
1.1097e-06
1.10979e-06
1.35575e-06
5.77662e-07
1.11965e-06
1.11974e-06
1.37171e-06
5.82009e-07
1.12401e-06
1.1241e-06
1.37916e-06
5.83584e-07
1.12575e-06
1.12583e-06
1.3823e-06
5.83919e-07
1.12615e-06
1.12623e-06
1.38323e-06
5.83887e-07
1.12613e-06
1.12621e-06
1.38328e-06
5.83962e-07
1.12626e-06
1.12634e-06
1.38349e-06
5.83958e-07
1.12625e-06
1.12633e-06
1.38358e-06
5.83925e-07
1.12619e-06
1.12627e-06
1.38331e-06
5.83946e-07
1.12625e-06
1.12634e-06
1.3836e-06
5.83929e-07
1.12621e-06
1.12629e-06
1.38343e-06
5.83935e-07
1.12622e-06
1.12631e-06
1.38349e-06
5.83929e-07
1.12621e-06
1.12629e-06
1.38343e-06
5.83928e-07
1.12622e-06
1.12631e-06
1.38348e-06
5.83923e-07
1.12621e-06
1.12629e-06
1.38341e-06
5.83919e-07
1.12622e-06
1.1263e-06
1.38351e-06
5.83917e-07
1.12621e-06
1.1263e-06
1.38336e-06
5.83917e-07
1.12621e-06
1.1263e-06
1.38352e-06
5.83916e-07
1.12621e-06
1.1263e-06
1.38345e-06
5.83916e-07
1.12621e-06
1.1263e-06
1.38338e-06
5.83915e-07
1.12621e-06
1.1263e-06
1.38347e-06
5.83915e-07
1.12622e-06
1.1263e-06
1.38348e-06
5.83916e-07
1.12622e-06
1.12631e-06
1.38346e-06
5.83918e-07
1.12622e-06
1.1263e-06
1.38337e-06
5.83919e-07
1.12623e-06
1.12631e-06
1.38349e-06
5.83922e-07
1.12623e-06
1.12632e-06
1.3835e-06
5.83923e-07
1.12624e-06
1.12633e-06
1.38348e-06
5.83927e-07
1.12626e-06
1.12634e-06
1.38337e-06
5.83934e-07
1.12629e-06
1.12637e-06
1.38349e-06
5.83931e-07
1.12632e-06
1.12641e-06
1.38345e-06
5.83689e-07
1.12602e-06
1.12609e-06
1.38304e-06
5.63882e-07
1.06722e-06
1.06721e-06
1.34007e-06
4.8632e-09
4.32107e-09
4.26888e-09
4.78566e-09
4.25388e-09
4.2127e-09
6.27127e-09
6.29474e-09
6.27729e-09
6.27491e-09
4.19641e-09
3.96155e-09
4.85309e-09
4.20377e-09
4.24617e-09
4.97205e-09
4.83331e-09
4.41753e-09
4.80809e-09
4.77206e-09
4.50521e-09
4.46949e-09
4.75629e-09
4.3576e-09
4.75673e-09
4.69102e-09
4.45197e-09
4.39286e-09
4.57619e-09
4.41209e-09
4.37079e-09
4.81907e-09
4.44246e-09
4.70723e-09
5.7833e-09
4.3998e-09
4.51031e-09
4.37873e-09
4.01938e-09
4.40357e-09
4.36915e-09
4.12049e-09
4.09209e-09
4.32477e-09
3.97866e-09
4.35202e-09
4.29449e-09
4.07204e-09
4.01902e-09
4.30048e-09
4.02307e-09
4.09954e-09
4.40693e-09
4.04187e-09
4.29856e-09
4.60281e-09
4.017e-09
4.09555e-09
3.98293e-09
3.67585e-09
4.03389e-09
4.00809e-09
3.791e-09
3.76937e-09
3.95068e-09
3.65448e-09
3.98554e-09
3.93462e-09
3.74367e-09
3.70042e-09
4.03506e-09
3.69165e-09
3.84817e-09
4.01095e-09
3.68678e-09
3.93236e-09
3.92603e-09
3.70145e-09
3.74601e-09
3.64574e-09
3.37971e-09
3.71581e-09
3.69562e-09
3.50722e-09
3.48865e-09
3.63008e-09
3.37296e-09
3.66938e-09
3.62838e-09
3.46158e-09
3.43024e-09
3.78836e-09
3.41022e-09
3.61702e-09
3.66055e-09
3.38246e-09
3.63009e-09
3.45563e-09
3.43228e-09
3.45442e-09
3.35765e-09
3.12554e-09
3.44308e-09
3.42318e-09
3.26438e-09
3.24151e-09
3.35205e-09
3.13274e-09
3.39566e-09
3.36969e-09
3.21219e-09
3.20166e-09
3.56323e-09
3.17774e-09
3.41207e-09
3.35994e-09
3.11341e-09
3.37175e-09
3.12257e-09
3.20236e-09
3.20805e-09
3.10709e-09
2.9076e-09
3.2092e-09
3.18651e-09
3.0611e-09
3.03908e-09
3.11565e-09
2.92663e-09
3.15638e-09
3.15082e-09
3.00612e-09
3.01319e-09
3.36599e-09
2.99148e-09
3.23726e-09
3.0947e-09
2.8887e-09
3.14999e-09
2.89482e-09
3.00824e-09
2.99403e-09
2.89316e-09
2.72707e-09
3.01757e-09
2.99599e-09
2.90353e-09
2.88803e-09
2.91354e-09
2.75719e-09
2.96185e-09
2.97244e-09
2.84729e-09
2.86823e-09
3.19919e-09
2.84762e-09
3.10087e-09
2.87466e-09
2.71351e-09
2.96728e-09
2.79077e-09
2.86002e-09
2.81635e-09
2.71734e-09
2.58753e-09
2.87144e-09
2.85932e-09
2.79124e-09
2.7862e-09
2.74818e-09
2.62209e-09
2.81439e-09
2.8396e-09
2.72817e-09
2.76747e-09
3.07313e-09
2.74389e-09
3.00122e-09
2.70517e-09
2.59217e-09
2.83066e-09
2.77977e-09
2.75588e-09
2.67724e-09
2.58246e-09
2.48751e-09
2.76952e-09
2.76627e-09
2.7254e-09
2.7195e-09
2.6172e-09
2.51923e-09
2.70317e-09
2.74954e-09
2.64461e-09
2.70988e-09
2.98063e-09
2.68058e-09
2.93465e-09
2.58891e-09
2.52119e-09
2.73702e-09
2.87082e-09
2.69453e-09
2.57087e-09
2.48742e-09
2.42106e-09
2.71544e-09
2.70704e-09
2.69891e-09
2.68949e-09
2.51868e-09
2.44997e-09
2.63003e-09
2.70104e-09
2.60014e-09
2.69155e-09
2.92317e-09
2.65679e-09
2.90327e-09
2.52255e-09
2.48422e-09
2.6854e-09
2.99191e-09
2.67473e-09
2.49701e-09
2.42427e-09
2.37858e-09
2.69916e-09
2.69003e-09
2.71217e-09
2.70582e-09
2.45341e-09
2.41351e-09
2.59562e-09
2.69303e-09
2.59027e-09
2.71237e-09
2.90335e-09
2.67567e-09
2.91605e-09
2.48955e-09
2.45913e-09
2.67605e-09
3.10855e-09
2.69584e-09
2.46077e-09
2.38765e-09
2.36916e-09
2.72177e-09
2.71796e-09
2.77382e-09
2.77197e-09
2.42458e-09
2.41638e-09
2.59349e-09
2.72506e-09
2.62553e-09
2.7806e-09
2.92624e-09
2.74288e-09
2.97229e-09
2.469e-09
2.47099e-09
2.70822e-09
3.21825e-09
2.765e-09
2.46575e-09
2.38784e-09
2.41076e-09
2.79682e-09
2.79649e-09
2.895e-09
2.89472e-09
2.43726e-09
2.4719e-09
2.64339e-09
2.80622e-09
2.72642e-09
2.90803e-09
2.99354e-09
2.86693e-09
3.07701e-09
2.49327e-09
2.55373e-09
2.79058e-09
3.43686e-09
2.88931e-09
2.52008e-09
2.44394e-09
2.52835e-09
2.93609e-09
2.9357e-09
3.09339e-09
3.09578e-09
2.50543e-09
2.61007e-09
2.76698e-09
2.95217e-09
2.92119e-09
3.11691e-09
3.11359e-09
3.07185e-09
3.25289e-09
2.59376e-09
2.71957e-09
2.93154e-09
3.79281e-09
3.08949e-09
2.64145e-09
2.58472e-09
2.75921e-09
3.15774e-09
3.16252e-09
3.40035e-09
3.40688e-09
2.67795e-09
2.84927e-09
2.9873e-09
3.18292e-09
3.2262e-09
3.42855e-09
3.31222e-09
3.38658e-09
3.54328e-09
2.78605e-09
2.97941e-09
3.154e-09
4.21188e-09
3.39714e-09
2.87687e-09
2.85976e-09
3.17777e-09
3.49882e-09
3.50017e-09
3.87245e-09
3.87334e-09
2.94052e-09
3.25523e-09
3.3231e-09
3.52603e-09
3.69839e-09
3.89453e-09
3.64216e-09
3.84756e-09
4.00552e-09
3.08482e-09
3.36931e-09
3.49561e-09
4.7299e-09
3.85892e-09
3.27432e-09
3.34221e-09
3.8323e-09
4.02766e-09
4.03709e-09
4.55329e-09
4.55509e-09
3.43313e-09
3.937e-09
3.86301e-09
4.06181e-09
4.36302e-09
4.56809e-09
4.16802e-09
4.5463e-09
4.73119e-09
3.52259e-09
4.08348e-09
4.01329e-09
5.46953e-09
4.55219e-09
3.94998e-09
4.07532e-09
5.23966e-09
4.77362e-09
4.79973e-09
5.72537e-09
5.65415e-09
4.22057e-09
5.18293e-09
4.56922e-09
4.77359e-09
5.50619e-09
5.73834e-09
4.97464e-09
5.62844e-09
5.84565e-09
4.30985e-09
5.43549e-09
4.78342e-09
6.34305e-09
5.62654e-09
5.17476e-09
5.74776e-09
6.88216e-09
6.06392e-09
6.00388e-09
7.09541e-09
7.22671e-09
5.64266e-09
7.32462e-09
5.84546e-09
6.05619e-09
6.88849e-09
7.06266e-09
6.21336e-09
7.19119e-09
7.51985e-09
5.86153e-09
6.75584e-09
5.96332e-09
7.55803e-09
7.23608e-09
7.43992e-09
7.75546e-09
1.16909e-08
7.73863e-09
7.78017e-09
9.72134e-09
9.49893e-09
8.02458e-09
1.0993e-08
7.51052e-09
7.59225e-09
9.4403e-09
9.70704e-09
7.98452e-09
9.42235e-09
9.73393e-09
7.51803e-09
1.22684e-08
7.68109e-09
1.07719e-08
9.5078e-09
1.08122e-08
1.25922e-08
1.60865e-08
1.0381e-08
1.03321e-08
1.24348e-08
1.30532e-08
1.22326e-08
1.85858e-08
1.01105e-08
1.04288e-08
1.22187e-08
1.28804e-08
1.0608e-08
1.29824e-08
1.32412e-08
1.34799e-08
1.72284e-08
1.02861e-08
1.33166e-08
1.29794e-08
1.82591e-08
1.76561e-08
3.15864e-08
1.35532e-08
1.36177e-08
1.82874e-08
1.89994e-08
1.92276e-08
3.4221e-08
1.31455e-08
1.38568e-08
1.78082e-08
1.73482e-08
1.38775e-08
1.89113e-08
1.80868e-08
1.87671e-08
2.79042e-08
1.36323e-08
1.7257e-08
1.74795e-08
2.74955e-08
3.39983e-08
4.07802e-08
1.92664e-08
2.23004e-08
2.29441e-08
2.54637e-08
4.68625e-08
5.31823e-08
1.89385e-08
1.86875e-08
2.25706e-08
2.42664e-08
2.00077e-08
2.47356e-08
2.34453e-08
3.04529e-08
4.80686e-08
1.9634e-08
2.40806e-08
2.39007e-08
4.67579e-08
4.65763e-08
7.83123e-08
2.53777e-08
2.54781e-08
3.37949e-08
3.17473e-08
5.10312e-08
6.96401e-08
2.50327e-08
2.61577e-08
3.3186e-08
3.17565e-08
2.46104e-08
3.19443e-08
3.08555e-08
5.33121e-08
6.83883e-08
2.5009e-08
3.16703e-08
3.09999e-08
6.29319e-08
8.2223e-08
9.79569e-08
3.5363e-08
3.43486e-08
4.26667e-08
4.3509e-08
8.08381e-08
1.0422e-07
3.48236e-08
3.42552e-08
4.16979e-08
4.50744e-08
3.4096e-08
4.32318e-08
4.58125e-08
7.47144e-08
1.16866e-07
3.43427e-08
4.49209e-08
4.54372e-08
1.21756e-07
1.09454e-07
1.63575e-07
4.73541e-08
4.77923e-08
5.69456e-08
5.70805e-08
1.155e-07
1.61042e-07
4.61417e-08
4.78245e-08
5.66847e-08
5.50776e-08
4.83525e-08
5.66045e-08
5.461e-08
1.2765e-07
1.4569e-07
4.77085e-08
5.47998e-08
5.45127e-08
1.40185e-07
1.69848e-07
2.16984e-07
5.98293e-08
6.03648e-08
7.32525e-08
7.24465e-08
1.67102e-07
2.16037e-07
6.011e-08
5.93448e-08
7.25866e-08
7.50668e-08
5.89748e-08
7.2524e-08
7.52339e-08
1.54132e-07
2.31134e-07
5.94357e-08
7.48479e-08
7.52681e-08
2.35145e-07
2.31038e-07
2.80846e-07
7.71005e-08
7.78258e-08
9.36828e-08
9.4406e-08
2.3065e-07
2.89873e-07
7.60088e-08
7.92667e-08
9.26095e-08
9.11508e-08
7.83833e-08
9.35019e-08
9.14633e-08
2.43011e-07
2.80226e-07
7.82433e-08
9.04448e-08
9.22763e-08
2.76952e-07
3.01898e-07
3.61339e-07
1.00293e-07
9.84443e-08
1.13436e-07
1.14035e-07
3.07676e-07
3.57413e-07
9.9823e-08
9.70762e-08
1.13839e-07
1.16582e-07
9.87994e-08
1.14254e-07
1.15766e-07
2.93541e-07
3.64554e-07
9.97502e-08
1.16475e-07
1.15565e-07
3.71194e-07
3.71888e-07
4.47056e-07
1.18419e-07
1.22683e-07
1.45275e-07
1.45817e-07
3.76045e-07
4.57915e-07
1.18436e-07
1.21306e-07
1.43762e-07
1.41639e-07
1.19605e-07
1.44527e-07
1.41215e-07
3.83067e-07
4.41438e-07
1.19316e-07
1.41286e-07
1.41237e-07
4.3423e-07
4.71784e-07
5.15616e-07
1.5392e-07
1.50046e-07
1.68669e-07
1.63332e-07
4.67068e-07
4.92247e-07
1.52666e-07
1.51481e-07
1.68602e-07
1.72018e-07
1.51451e-07
1.62808e-07
1.70992e-07
4.61021e-07
5.21777e-07
1.51439e-07
1.71494e-07
1.71081e-07
5.21074e-07
5.24737e-07
5.91626e-07
1.74155e-07
1.71517e-07
2.04037e-07
2.07163e-07
5.06977e-07
6.0253e-07
1.74075e-07
1.76459e-07
2.02674e-07
1.99808e-07
1.75451e-07
2.07086e-07
1.99798e-07
5.31893e-07
5.79201e-07
1.75631e-07
1.99182e-07
2.00428e-07
5.80563e-07
6.15849e-07
6.61554e-07
2.15718e-07
2.17851e-07
2.40944e-07
2.41191e-07
6.23347e-07
6.59481e-07
2.14101e-07
2.12246e-07
2.41184e-07
2.44577e-07
2.11974e-07
2.41053e-07
2.43173e-07
6.00627e-07
6.69646e-07
2.12713e-07
2.44156e-07
2.43024e-07
6.68427e-07
6.70941e-07
7.05436e-07
2.48143e-07
2.47765e-07
2.73195e-07
2.73515e-07
6.69083e-07
7.04958e-07
2.4852e-07
2.51754e-07
2.72247e-07
2.74192e-07
2.50575e-07
2.73194e-07
2.73303e-07
6.80191e-07
7.0636e-07
2.5039e-07
2.73362e-07
2.73503e-07
7.05432e-07
7.19672e-07
7.64588e-07
2.83424e-07
2.844e-07
3.18393e-07
3.17137e-07
7.19467e-07
7.64628e-07
2.82676e-07
2.83915e-07
3.18599e-07
3.18666e-07
2.8313e-07
3.17963e-07
3.16706e-07
7.18707e-07
7.65004e-07
2.83145e-07
3.175e-07
3.17136e-07
7.64271e-07
7.7735e-07
8.10797e-07
3.29833e-07
3.28494e-07
3.61465e-07
3.63876e-07
7.77266e-07
8.11374e-07
3.29398e-07
3.30457e-07
3.59843e-07
3.6304e-07
3.28007e-07
3.62223e-07
3.62105e-07
7.78683e-07
8.12252e-07
3.28804e-07
3.62745e-07
3.6208e-07
8.11538e-07
8.22242e-07
8.55354e-07
3.72377e-07
3.743e-07
4.09229e-07
4.07255e-07
8.22628e-07
8.53501e-07
3.71864e-07
3.74089e-07
4.10269e-07
4.09957e-07
3.73289e-07
4.07491e-07
4.07096e-07
8.23057e-07
8.53639e-07
3.72947e-07
4.08448e-07
4.07644e-07
8.53299e-07
8.66002e-07
8.91292e-07
4.2164e-07
4.20429e-07
4.54462e-07
4.56429e-07
8.64514e-07
8.93196e-07
4.21574e-07
4.21433e-07
4.53206e-07
4.55396e-07
4.19104e-07
4.57229e-07
4.55465e-07
8.64363e-07
8.9235e-07
4.19834e-07
4.55866e-07
4.55204e-07
8.92723e-07
9.01058e-07
9.29736e-07
4.65602e-07
4.66838e-07
5.05686e-07
5.0419e-07
9.02481e-07
9.27649e-07
4.65163e-07
4.68163e-07
5.05397e-07
5.05977e-07
4.67362e-07
5.02663e-07
5.03879e-07
9.02213e-07
9.28014e-07
4.66863e-07
5.04358e-07
5.03923e-07
9.28083e-07
9.39608e-07
9.62315e-07
5.19079e-07
5.17933e-07
5.52715e-07
5.53242e-07
9.37639e-07
9.62395e-07
5.1853e-07
5.17247e-07
5.53545e-07
5.53665e-07
5.16337e-07
5.54464e-07
5.53935e-07
9.37166e-07
9.61831e-07
5.16685e-07
5.54248e-07
5.5401e-07
9.62493e-07
9.70731e-07
9.95042e-07
5.64135e-07
5.64197e-07
6.0364e-07
6.02183e-07
9.70593e-07
9.93476e-07
5.64997e-07
5.66877e-07
6.0288e-07
6.01772e-07
5.66153e-07
6.02024e-07
6.00857e-07
9.70913e-07
9.92218e-07
5.65867e-07
5.99592e-07
6.00275e-07
9.93108e-07
1.00379e-06
1.02358e-06
6.16272e-07
6.15586e-07
6.4895e-07
6.50053e-07
1.00219e-06
1.0228e-06
6.16048e-07
6.1268e-07
6.51484e-07
6.50457e-07
6.12918e-07
6.50665e-07
6.512e-07
1.00001e-06
1.02424e-06
6.12381e-07
6.50145e-07
6.50184e-07
1.02488e-06
1.03098e-06
1.05237e-06
6.60258e-07
6.60616e-07
6.97361e-07
6.98478e-07
1.03037e-06
1.05411e-06
6.62336e-07
6.63463e-07
6.96301e-07
6.97365e-07
6.63348e-07
6.9815e-07
6.9707e-07
1.03326e-06
1.05359e-06
6.62243e-07
6.96326e-07
6.96701e-07
1.0537e-06
1.0602e-06
1.0798e-06
7.09101e-07
7.1229e-07
7.40728e-07
7.45102e-07
1.06282e-06
1.08146e-06
7.08345e-07
7.08503e-07
7.43264e-07
7.44637e-07
7.08436e-07
7.41482e-07
7.422e-07
1.06064e-06
1.08279e-06
7.08382e-07
7.43346e-07
7.42614e-07
1.08231e-06
1.08708e-06
1.10889e-06
7.51748e-07
7.53746e-07
7.86823e-07
7.83859e-07
1.08731e-06
1.10549e-06
7.54433e-07
7.56111e-07
7.86059e-07
7.85648e-07
7.5343e-07
7.83884e-07
7.87134e-07
1.09075e-06
1.10822e-06
7.53802e-07
7.84644e-07
7.86592e-07
1.10954e-06
1.11628e-06
1.13396e-06
7.97864e-07
7.95431e-07
8.26839e-07
8.26255e-07
1.11354e-06
1.13428e-06
7.95925e-07
7.95324e-07
8.24447e-07
8.26505e-07
7.9765e-07
8.28744e-07
8.27388e-07
1.11437e-06
1.13378e-06
7.96746e-07
8.25813e-07
8.26362e-07
1.13505e-06
1.1402e-06
1.15808e-06
8.35983e-07
8.35183e-07
8.63281e-07
8.63052e-07
1.14027e-06
1.15692e-06
8.34217e-07
8.36861e-07
8.63805e-07
8.64809e-07
8.37908e-07
8.64315e-07
8.67915e-07
1.14119e-06
1.15943e-06
8.37114e-07
8.64831e-07
8.67571e-07
1.16187e-06
1.16466e-06
1.18212e-06
8.71991e-07
8.72381e-07
8.98873e-07
8.98474e-07
1.16389e-06
1.18238e-06
8.73163e-07
8.73048e-07
9.01162e-07
8.98353e-07
8.75658e-07
9.00818e-07
8.98786e-07
1.16517e-06
1.17984e-06
8.75309e-07
8.97738e-07
8.98403e-07
1.17886e-06
1.18807e-06
1.20061e-06
9.0762e-07
9.0611e-07
9.28953e-07
9.25462e-07
1.18801e-06
1.19883e-06
9.0983e-07
9.06748e-07
9.29562e-07
9.28088e-07
9.07517e-07
9.27807e-07
9.28949e-07
1.18573e-06
1.19998e-06
9.07221e-07
9.28022e-07
9.29011e-07
1.19957e-06
1.20519e-06
1.21981e-06
9.35413e-07
9.3218e-07
9.58012e-07
9.56961e-07
1.20341e-06
1.21913e-06
9.35426e-07
9.34755e-07
9.5747e-07
9.57799e-07
9.34604e-07
9.54843e-07
9.55781e-07
1.20502e-06
1.22012e-06
9.34661e-07
9.56768e-07
9.555e-07
1.21647e-06
1.22577e-06
1.23121e-06
9.6539e-07
9.64961e-07
9.77005e-07
9.77521e-07
1.22548e-06
1.23234e-06
9.64882e-07
9.65178e-07
9.75971e-07
9.7645e-07
9.63583e-07
9.75946e-07
9.76601e-07
1.226e-06
1.23144e-06
9.63319e-07
9.76502e-07
9.76977e-07
1.23172e-06
1.2323e-06
1.22393e-06
9.77506e-07
9.78179e-07
9.79407e-07
9.80369e-07
1.23352e-06
1.22519e-06
9.76355e-07
9.7696e-07
9.78155e-07
9.79199e-07
9.77201e-07
9.79057e-07
9.78558e-07
1.23255e-06
1.22403e-06
9.77678e-07
9.79149e-07
9.78912e-07
1.22495e-06
1.22702e-06
1.2499e-06
9.82311e-07
9.83305e-07
1.00409e-06
1.00501e-06
1.22817e-06
1.25034e-06
9.81115e-07
9.82308e-07
1.00337e-06
1.00489e-06
9.81038e-07
1.00418e-06
1.00223e-06
1.22703e-06
1.24996e-06
9.81239e-07
1.00391e-06
1.00202e-06
1.24832e-06
1.26029e-06
1.29548e-06
1.01521e-06
1.01611e-06
1.04554e-06
1.04627e-06
1.26064e-06
1.29575e-06
1.01478e-06
1.01626e-06
1.04569e-06
1.04665e-06
1.01363e-06
1.04642e-06
1.04574e-06
1.26042e-06
1.29593e-06
1.01331e-06
1.04604e-06
1.0453e-06
1.2951e-06
1.3037e-06
1.3204e-06
1.05339e-06
1.05403e-06
1.06847e-06
1.06885e-06
1.30398e-06
1.32064e-06
1.05355e-06
1.05437e-06
1.06845e-06
1.06892e-06
1.05393e-06
1.06912e-06
1.0693e-06
1.30416e-06
1.32077e-06
1.05351e-06
1.06888e-06
1.06903e-06
1.32102e-06
1.32343e-06
1.3058e-06
1.07008e-06
1.07039e-06
1.06495e-06
1.06498e-06
1.32365e-06
1.30581e-06
1.07001e-06
1.07039e-06
1.06469e-06
1.0648e-06
1.07088e-06
1.06508e-06
1.06548e-06
1.32376e-06
1.30582e-06
1.07066e-06
1.06499e-06
1.06541e-06
1.30663e-06
1.30442e-06
1.25748e-06
1.05879e-06
1.05878e-06
1.03426e-06
1.03409e-06
1.30441e-06
1.25722e-06
1.05852e-06
1.05859e-06
1.03389e-06
1.0339e-06
1.05926e-06
1.03405e-06
1.0344e-06
1.3044e-06
1.25727e-06
1.05921e-06
1.03407e-06
1.03441e-06
1.25787e-06
1.25563e-06
1.21286e-06
1.02617e-06
1.02598e-06
1.00328e-06
1.00312e-06
1.25537e-06
1.2126e-06
1.02579e-06
1.02582e-06
1.00294e-06
1.00308e-06
1.0262e-06
1.00299e-06
1.00318e-06
1.25542e-06
1.21276e-06
1.02621e-06
1.00309e-06
1.00314e-06
1.21289e-06
1.21145e-06
1.18693e-06
9.96383e-07
9.96242e-07
9.83902e-07
9.83829e-07
1.2112e-06
1.18678e-06
9.9607e-07
9.96242e-07
9.8366e-07
9.83902e-07
9.96276e-07
9.83693e-07
9.83832e-07
1.21136e-06
1.18697e-06
9.9622e-07
9.83778e-07
9.83746e-07
1.1869e-06
1.18831e-06
1.20836e-06
9.83435e-07
9.83376e-07
9.98025e-07
9.98028e-07
1.18817e-06
1.20828e-06
9.83208e-07
9.83457e-07
9.97866e-07
9.98123e-07
9.8338e-07
9.97897e-07
9.98059e-07
1.18835e-06
1.20846e-06
9.83289e-07
9.97973e-07
9.97945e-07
1.20841e-06
1.21894e-06
1.265e-06
1.00832e-06
1.00833e-06
1.04301e-06
1.04304e-06
1.21887e-06
1.26493e-06
1.00818e-06
1.00842e-06
1.04289e-06
1.04309e-06
1.00838e-06
1.0429e-06
1.04309e-06
1.21903e-06
1.26507e-06
1.00826e-06
1.04298e-06
1.04297e-06
1.26508e-06
1.27663e-06
1.3161e-06
1.05386e-06
1.05389e-06
1.08167e-06
1.0817e-06
1.27656e-06
1.31603e-06
1.05375e-06
1.05394e-06
1.08156e-06
1.08173e-06
1.05394e-06
1.08156e-06
1.08174e-06
1.27668e-06
1.31613e-06
1.05383e-06
1.08164e-06
1.08163e-06
1.31617e-06
1.32527e-06
1.34951e-06
1.08909e-06
1.08913e-06
1.10585e-06
1.10589e-06
1.32521e-06
1.34945e-06
1.08899e-06
1.08915e-06
1.10575e-06
1.10591e-06
1.08917e-06
1.10574e-06
1.10593e-06
1.32531e-06
1.34955e-06
1.08906e-06
1.10583e-06
1.10583e-06
1.34959e-06
1.35568e-06
1.36769e-06
1.10981e-06
1.10984e-06
1.11796e-06
1.11799e-06
1.35562e-06
1.36763e-06
1.10971e-06
1.10987e-06
1.11786e-06
1.11803e-06
1.10989e-06
1.11786e-06
1.11805e-06
1.35571e-06
1.36773e-06
1.10979e-06
1.11795e-06
1.11795e-06
1.36778e-06
1.37163e-06
1.37631e-06
1.11975e-06
1.11978e-06
1.12334e-06
1.12337e-06
1.37157e-06
1.37625e-06
1.11965e-06
1.11982e-06
1.12323e-06
1.1234e-06
1.11984e-06
1.12324e-06
1.12342e-06
1.37167e-06
1.37635e-06
1.11974e-06
1.12332e-06
1.12333e-06
1.37639e-06
1.37908e-06
1.38004e-06
1.12411e-06
1.12414e-06
1.12557e-06
1.1256e-06
1.37902e-06
1.37999e-06
1.12401e-06
1.12418e-06
1.12547e-06
1.12564e-06
1.1242e-06
1.12548e-06
1.12566e-06
1.37912e-06
1.38008e-06
1.1241e-06
1.12556e-06
1.12556e-06
1.38013e-06
1.38222e-06
1.38122e-06
1.12584e-06
1.12587e-06
1.12621e-06
1.12624e-06
1.38217e-06
1.38117e-06
1.12574e-06
1.12591e-06
1.12611e-06
1.12628e-06
1.12593e-06
1.12611e-06
1.1263e-06
1.38226e-06
1.38126e-06
1.12583e-06
1.1262e-06
1.1262e-06
1.38131e-06
1.38315e-06
1.38134e-06
1.12624e-06
1.12627e-06
1.12623e-06
1.12626e-06
1.3831e-06
1.38128e-06
1.12614e-06
1.12631e-06
1.12613e-06
1.1263e-06
1.12633e-06
1.12613e-06
1.12632e-06
1.38319e-06
1.38138e-06
1.12624e-06
1.12622e-06
1.12622e-06
1.38142e-06
1.38319e-06
1.38143e-06
1.12622e-06
1.12625e-06
1.1263e-06
1.12633e-06
1.38313e-06
1.38138e-06
1.12612e-06
1.12629e-06
1.1262e-06
1.12637e-06
1.12631e-06
1.12621e-06
1.12639e-06
1.38323e-06
1.38147e-06
1.12621e-06
1.12629e-06
1.12629e-06
1.38151e-06
1.38341e-06
1.38161e-06
1.12635e-06
1.12639e-06
1.12638e-06
1.12641e-06
1.38336e-06
1.38155e-06
1.12625e-06
1.12642e-06
1.12628e-06
1.12644e-06
1.12644e-06
1.12628e-06
1.12647e-06
1.38345e-06
1.38165e-06
1.12635e-06
1.12637e-06
1.12637e-06
1.38169e-06
1.38349e-06
1.38131e-06
1.12634e-06
1.12638e-06
1.12628e-06
1.12631e-06
1.38344e-06
1.38125e-06
1.12625e-06
1.12641e-06
1.12618e-06
1.12635e-06
1.12643e-06
1.12618e-06
1.12637e-06
1.38353e-06
1.38135e-06
1.12634e-06
1.12627e-06
1.12628e-06
1.3814e-06
1.38323e-06
1.38157e-06
1.12628e-06
1.12632e-06
1.12634e-06
1.12638e-06
1.38318e-06
1.38152e-06
1.12618e-06
1.12635e-06
1.12624e-06
1.12641e-06
1.12637e-06
1.12625e-06
1.12643e-06
1.38327e-06
1.38161e-06
1.12628e-06
1.12633e-06
1.12634e-06
1.38166e-06
1.38351e-06
1.38148e-06
1.12635e-06
1.12638e-06
1.12631e-06
1.12634e-06
1.38347e-06
1.38141e-06
1.12625e-06
1.12642e-06
1.12621e-06
1.12638e-06
1.12644e-06
1.12621e-06
1.1264e-06
1.38356e-06
1.38151e-06
1.12634e-06
1.1263e-06
1.1263e-06
1.38155e-06
1.38336e-06
1.38144e-06
1.1263e-06
1.12633e-06
1.1263e-06
1.12634e-06
1.38329e-06
1.38139e-06
1.1262e-06
1.12637e-06
1.12621e-06
1.12637e-06
1.12639e-06
1.12621e-06
1.1264e-06
1.38339e-06
1.38149e-06
1.1263e-06
1.1263e-06
1.1263e-06
1.38153e-06
1.38339e-06
1.3815e-06
1.12632e-06
1.12635e-06
1.12632e-06
1.12635e-06
1.38335e-06
1.38143e-06
1.12622e-06
1.12639e-06
1.12622e-06
1.12638e-06
1.12641e-06
1.12622e-06
1.12641e-06
1.38345e-06
1.38153e-06
1.12632e-06
1.1263e-06
1.12631e-06
1.38158e-06
1.38335e-06
1.38145e-06
1.1263e-06
1.12634e-06
1.1263e-06
1.12634e-06
1.38329e-06
1.3814e-06
1.12621e-06
1.12637e-06
1.1262e-06
1.12637e-06
1.1264e-06
1.12621e-06
1.1264e-06
1.38339e-06
1.3815e-06
1.1263e-06
1.12629e-06
1.1263e-06
1.38154e-06
1.38339e-06
1.38148e-06
1.12632e-06
1.12635e-06
1.1263e-06
1.12634e-06
1.38335e-06
1.3814e-06
1.12622e-06
1.12639e-06
1.12621e-06
1.12637e-06
1.12641e-06
1.12621e-06
1.1264e-06
1.38343e-06
1.38151e-06
1.12632e-06
1.12629e-06
1.1263e-06
1.38156e-06
1.38333e-06
1.38148e-06
1.1263e-06
1.12634e-06
1.1263e-06
1.12634e-06
1.38326e-06
1.38145e-06
1.1262e-06
1.12637e-06
1.1262e-06
1.12637e-06
1.1264e-06
1.12621e-06
1.1264e-06
1.38336e-06
1.38154e-06
1.1263e-06
1.12629e-06
1.1263e-06
1.38158e-06
1.38341e-06
1.38141e-06
1.12631e-06
1.12635e-06
1.1263e-06
1.12633e-06
1.38339e-06
1.38133e-06
1.12621e-06
1.12638e-06
1.1262e-06
1.12637e-06
1.1264e-06
1.1262e-06
1.12639e-06
1.38347e-06
1.38144e-06
1.12631e-06
1.12629e-06
1.1263e-06
1.38149e-06
1.38327e-06
1.38155e-06
1.1263e-06
1.12634e-06
1.1263e-06
1.12634e-06
1.38322e-06
1.38149e-06
1.1262e-06
1.12637e-06
1.1262e-06
1.12637e-06
1.1264e-06
1.12621e-06
1.12639e-06
1.38332e-06
1.38159e-06
1.1263e-06
1.12629e-06
1.1263e-06
1.38164e-06
1.38344e-06
1.3814e-06
1.1263e-06
1.12634e-06
1.1263e-06
1.12633e-06
1.38337e-06
1.38138e-06
1.1262e-06
1.12637e-06
1.1262e-06
1.12637e-06
1.1264e-06
1.1262e-06
1.12639e-06
1.38347e-06
1.38148e-06
1.1263e-06
1.12629e-06
1.1263e-06
1.38151e-06
1.38334e-06
1.38143e-06
1.1263e-06
1.12634e-06
1.12629e-06
1.12633e-06
1.38332e-06
1.38135e-06
1.1262e-06
1.12637e-06
1.12619e-06
1.12637e-06
1.1264e-06
1.1262e-06
1.12639e-06
1.38342e-06
1.38145e-06
1.1263e-06
1.12629e-06
1.12629e-06
1.3815e-06
1.3833e-06
1.38151e-06
1.1263e-06
1.12634e-06
1.12629e-06
1.12633e-06
1.38323e-06
1.38146e-06
1.1262e-06
1.12638e-06
1.12619e-06
1.12636e-06
1.1264e-06
1.1262e-06
1.12639e-06
1.38333e-06
1.38155e-06
1.1263e-06
1.12629e-06
1.12629e-06
1.3816e-06
1.38339e-06
1.38146e-06
1.1263e-06
1.12634e-06
1.12629e-06
1.12633e-06
1.38333e-06
1.38142e-06
1.1262e-06
1.12637e-06
1.12619e-06
1.12636e-06
1.1264e-06
1.1262e-06
1.12639e-06
1.38342e-06
1.38154e-06
1.1263e-06
1.12629e-06
1.12629e-06
1.38156e-06
1.38339e-06
1.38139e-06
1.1263e-06
1.12634e-06
1.12628e-06
1.12632e-06
1.38334e-06
1.38136e-06
1.12621e-06
1.12638e-06
1.12618e-06
1.12636e-06
1.1264e-06
1.12619e-06
1.12639e-06
1.38345e-06
1.38147e-06
1.12631e-06
1.12628e-06
1.12629e-06
1.38153e-06
1.3833e-06
1.38146e-06
1.12631e-06
1.12634e-06
1.12628e-06
1.12631e-06
1.38329e-06
1.38134e-06
1.12621e-06
1.12638e-06
1.12618e-06
1.12635e-06
1.12641e-06
1.12619e-06
1.12638e-06
1.3834e-06
1.38144e-06
1.12631e-06
1.12627e-06
1.12628e-06
1.38149e-06
1.38333e-06
1.38152e-06
1.12631e-06
1.12634e-06
1.12628e-06
1.12631e-06
1.38324e-06
1.38141e-06
1.12621e-06
1.12638e-06
1.12618e-06
1.12635e-06
1.1264e-06
1.12618e-06
1.12638e-06
1.38333e-06
1.38151e-06
1.12631e-06
1.12627e-06
1.12628e-06
1.38161e-06
1.38341e-06
1.38143e-06
1.12632e-06
1.12635e-06
1.12627e-06
1.1263e-06
1.38327e-06
1.38148e-06
1.12622e-06
1.12639e-06
1.12617e-06
1.12634e-06
1.12642e-06
1.12618e-06
1.12636e-06
1.38337e-06
1.38156e-06
1.12632e-06
1.12626e-06
1.12626e-06
1.38158e-06
1.38336e-06
1.38143e-06
1.12633e-06
1.12636e-06
1.12626e-06
1.12629e-06
1.38337e-06
1.38141e-06
1.12623e-06
1.12639e-06
1.12616e-06
1.12633e-06
1.12642e-06
1.12616e-06
1.12635e-06
1.38344e-06
1.38151e-06
1.12632e-06
1.12625e-06
1.12625e-06
1.38153e-06
1.38334e-06
1.38137e-06
1.12633e-06
1.12637e-06
1.12624e-06
1.12627e-06
1.38336e-06
1.38131e-06
1.12624e-06
1.12641e-06
1.12615e-06
1.12631e-06
1.12643e-06
1.12615e-06
1.12634e-06
1.38344e-06
1.38143e-06
1.12633e-06
1.12623e-06
1.12624e-06
1.38148e-06
1.38327e-06
1.38152e-06
1.12635e-06
1.12638e-06
1.12623e-06
1.12626e-06
1.38321e-06
1.38146e-06
1.12625e-06
1.12642e-06
1.12614e-06
1.1263e-06
1.12645e-06
1.12614e-06
1.12633e-06
1.38332e-06
1.38156e-06
1.12634e-06
1.12622e-06
1.12623e-06
1.3816e-06
1.38341e-06
1.38136e-06
1.12638e-06
1.12641e-06
1.12621e-06
1.12625e-06
1.38335e-06
1.38134e-06
1.12628e-06
1.12645e-06
1.12612e-06
1.12629e-06
1.12648e-06
1.12612e-06
1.12631e-06
1.38346e-06
1.38143e-06
1.12638e-06
1.1262e-06
1.12621e-06
1.38152e-06
1.38329e-06
1.3812e-06
1.12642e-06
1.12645e-06
1.12582e-06
1.12585e-06
1.38327e-06
1.38117e-06
1.12632e-06
1.12649e-06
1.12572e-06
1.12588e-06
1.12651e-06
1.12572e-06
1.12591e-06
1.38336e-06
1.38126e-06
1.12641e-06
1.1258e-06
1.1258e-06
1.38125e-06
1.38297e-06
1.36188e-06
1.12612e-06
1.12615e-06
1.10439e-06
1.10442e-06
1.38295e-06
1.36186e-06
1.12601e-06
1.12618e-06
1.10436e-06
1.10438e-06
1.12621e-06
1.10442e-06
1.10446e-06
1.38302e-06
1.3619e-06
1.12609e-06
1.10442e-06
1.10442e-06
1.36192e-06
1.34003e-06
1.06715e-06
1.06718e-06
1.34003e-06
1.06715e-06
1.06713e-06
5.6391e-07
5.6388e-07
5.63929e-07
1.06721e-06
1.34006e-06
1.0672e-06
1.70963e-08
3.35267e-09
1.08716e-08
1.08677e-08
1.50472e-09
4.25403e-09
1.15937e-08
5.85715e-09
1.51435e-09
4.56324e-09
6.09778e-09
1.08586e-08
5.14039e-09
6.41058e-09
3.71473e-09
7.34298e-09
1.63165e-07
5.87114e-09
2.59143e-07
1.61333e-06
3.20495e-06
7.58583e-09
1.66411e-07
6.19591e-09
2.61438e-07
6.22816e-09
6.25905e-09
6.20562e-09
6.16277e-09
6.18249e-09
6.22515e-09
6.16195e-09
1.49839e-09
8.73157e-08
3.1875e-09
4.62616e-09
1.50753e-09
6.56681e-08
3.14182e-09
1.63456e-06
3.21359e-06
1.50684e-09
3.97729e-09
1.16362e-07
6.66745e-09
1.53155e-09
3.84667e-09
9.41354e-08
2.13269e-07
2.15989e-07
4.74439e-09
1.82233e-07
1.83915e-07
1.80696e-08
4.67841e-07
1.16455e-08
6.70331e-07
7.12057e-06
1.01711e-05
1.76131e-08
4.07424e-07
1.22416e-08
6.57575e-07
6.18604e-09
6.21794e-09
6.16769e-09
6.18036e-09
6.20207e-09
6.21343e-09