/*--------------------------------*- C++ -*----------------------------------*\
| =========                 |                                                 |
| \\      /  F ield         | OpenFOAM: The Open Source CFD Toolbox           |
|  \\    /   O peration     | Version:  v1906                                 |
|   \\  /    A nd           | Web:      www.OpenFOAM.com                      |
|    \\/     M anipulation  |                                                 |
\*---------------------------------------------------------------------------*/
FoamFile
{
    version     2.0;
    format      ascii;
    class       volScalarField;
    location    "250";
    object      k;
}
// * * * * * * * * * * * * * * * * * * * * * * * * * * * * * * * * * * * * * //

dimensions      [0 2 -2 0 0 0 0];


internalField   nonuniform List<scalar> 
171728
(
8.60296e-07
3.52102e-07
5.80393e-07
3.53157e-07
8.50477e-07
3.33283e-07
5.43203e-07
3.34116e-07
8.61014e-07
3.18134e-07
4.55654e-07
3.17078e-07
8.72262e-07
3.0451e-07
3.90697e-07
3.01998e-07
8.84223e-07
2.928e-07
3.52375e-07
2.89012e-07
8.96956e-07
2.83122e-07
3.12448e-07
2.78173e-07
9.10339e-07
2.75294e-07
2.69882e-07
2.68238e-07
9.24212e-07
2.69522e-07
2.39201e-07
2.59123e-07
9.39056e-07
2.64577e-07
2.22233e-07
2.51883e-07
9.53908e-07
2.60655e-07
2.15563e-07
2.4606e-07
9.69864e-07
2.57583e-07
2.15015e-07
2.40047e-07
9.85384e-07
2.56345e-07
2.21984e-07
2.34557e-07
1.00114e-06
2.55645e-07
2.43535e-07
2.31289e-07
1.01806e-06
2.57126e-07
2.86638e-07
2.3151e-07
1.03562e-06
2.62316e-07
3.60828e-07
2.33657e-07
1.05305e-06
2.72966e-07
4.37478e-07
2.38086e-07
1.07094e-06
2.86824e-07
4.76472e-07
2.46676e-07
1.0878e-06
3.07872e-07
4.75615e-07
2.66367e-07
1.10896e-06
3.43391e-07
4.38802e-07
3.05302e-07
1.12428e-06
3.93945e-07
4.25718e-07
3.93201e-07
1.14489e-06
4.60476e-07
5.49463e-07
4.94816e-07
1.16097e-06
6.1673e-07
6.38592e-07
8.44984e-07
1.1859e-06
8.09448e-07
7.47943e-07
9.81926e-07
1.20379e-06
1.09605e-06
1.01783e-06
2.06896e-06
1.23745e-06
1.32727e-06
1.28773e-06
2.16765e-06
1.26741e-06
1.77002e-06
1.91487e-06
5.07482e-06
1.30259e-06
2.26369e-06
2.14199e-06
5.0651e-06
1.3437e-06
2.81865e-06
3.08939e-06
9.23407e-06
1.40434e-06
3.82046e-06
3.46408e-06
9.36544e-06
1.45684e-06
4.33501e-06
4.77217e-06
1.37735e-05
1.55415e-06
6.01385e-06
5.37371e-06
1.42342e-05
1.63314e-06
6.23422e-06
7.05991e-06
1.84542e-05
1.74223e-06
8.21664e-06
7.42393e-06
1.88264e-05
1.9288e-06
9.70269e-06
9.87747e-06
2.30593e-05
2.03004e-06
1.06339e-05
1.06955e-05
2.35954e-05
2.30136e-06
1.245e-05
1.23961e-05
2.54967e-05
2.53766e-06
1.42111e-05
1.42053e-05
2.71181e-05
2.91424e-06
1.58045e-05
1.59551e-05
2.84759e-05
3.26289e-06
1.7888e-05
1.77062e-05
2.98909e-05
3.74974e-06
1.93906e-05
1.95977e-05
3.10974e-05
4.31478e-06
2.14699e-05
2.14961e-05
3.24155e-05
4.90251e-06
2.31776e-05
2.31278e-05
3.34748e-05
5.68095e-06
2.50641e-05
2.50153e-05
3.47119e-05
6.41937e-06
2.68509e-05
2.67683e-05
3.58046e-05
7.36958e-06
2.85829e-05
2.85906e-05
3.6912e-05
8.4229e-06
2.99862e-05
3.01596e-05
3.80331e-05
9.56545e-06
3.2002e-05
3.17087e-05
3.89853e-05
1.07712e-05
3.33522e-05
3.34158e-05
4.03072e-05
1.19474e-05
3.49275e-05
3.47108e-05
4.09597e-05
1.3526e-05
3.61662e-05
3.60513e-05
4.20726e-05
1.46986e-05
3.72833e-05
3.73846e-05
4.27922e-05
1.67313e-05
3.88212e-05
3.88555e-05
4.40111e-05
1.7395e-05
3.86451e-05
3.866e-05
4.35443e-05
1.77475e-05
3.92082e-05
3.92033e-05
4.39973e-05
2.14113e-05
4.25594e-05
4.25539e-05
4.68223e-05
2.50708e-05
4.49057e-05
4.49032e-05
4.89152e-05
2.64869e-05
4.55116e-05
4.55108e-05
4.9355e-05
2.57703e-05
4.36054e-05
4.36073e-05
4.71855e-05
2.254e-05
4.10567e-05
4.1063e-05
4.48505e-05
2.02061e-05
3.90834e-05
3.90882e-05
4.28423e-05
1.97921e-05
3.90406e-05
3.90436e-05
4.299e-05
2.39906e-05
4.23934e-05
4.23958e-05
4.58112e-05
2.91729e-05
4.56301e-05
4.56318e-05
4.86798e-05
3.3186e-05
4.79165e-05
4.7918e-05
5.0712e-05
3.54706e-05
4.91456e-05
4.91471e-05
5.18072e-05
3.65277e-05
4.97002e-05
4.97015e-05
5.23065e-05
3.69804e-05
4.99391e-05
4.994e-05
5.25205e-05
3.71444e-05
5.00171e-05
5.00181e-05
5.25941e-05
3.71679e-05
5.00202e-05
5.00213e-05
5.26082e-05
3.71764e-05
5.00216e-05
5.00225e-05
5.25944e-05
3.71855e-05
5.00334e-05
5.00342e-05
5.26213e-05
3.71805e-05
5.00236e-05
5.00247e-05
5.26004e-05
3.71823e-05
5.0029e-05
5.003e-05
5.26092e-05
3.71817e-05
5.00268e-05
5.00277e-05
5.26132e-05
3.71812e-05
5.00258e-05
5.0027e-05
5.25997e-05
3.71815e-05
5.00278e-05
5.00287e-05
5.26164e-05
3.71811e-05
5.00266e-05
5.00276e-05
5.25998e-05
3.71811e-05
5.00265e-05
5.00277e-05
5.26141e-05
3.71808e-05
5.00271e-05
5.00278e-05
5.26041e-05
3.71807e-05
5.00266e-05
5.00276e-05
5.26071e-05
3.71807e-05
5.00268e-05
5.00278e-05
5.2613e-05
3.71806e-05
5.00268e-05
5.00279e-05
5.25997e-05
3.71806e-05
5.00267e-05
5.00277e-05
5.26094e-05
3.71806e-05
5.0027e-05
5.0028e-05
5.26138e-05
3.71805e-05
5.00271e-05
5.00281e-05
5.26053e-05
3.71806e-05
5.0027e-05
5.00279e-05
5.26006e-05
3.71807e-05
5.00268e-05
5.00276e-05
5.26071e-05
3.71808e-05
5.00274e-05
5.00282e-05
5.26139e-05
3.71809e-05
5.00276e-05
5.00284e-05
5.26084e-05
3.71811e-05
5.00277e-05
5.00286e-05
5.26e-05
3.71811e-05
5.00282e-05
5.00289e-05
5.26073e-05
3.71815e-05
5.00295e-05
5.00304e-05
5.2614e-05
3.71814e-05
5.00305e-05
5.00313e-05
5.26023e-05
3.71699e-05
5.00124e-05
5.00129e-05
5.25994e-05
3.66676e-05
4.87938e-05
4.87928e-05
5.21943e-05
3.59269e-07
3.44679e-07
3.40016e-07
3.48681e-07
3.44537e-07
3.44064e-07
8.82115e-07
8.83735e-07
8.89994e-07
8.82776e-07
3.3986e-07
3.13393e-07
3.52939e-07
3.99555e-07
3.40164e-07
3.54253e-07
3.57085e-07
3.41103e-07
3.53019e-07
3.4768e-07
3.41317e-07
3.3641e-07
3.45954e-07
3.30436e-07
3.52195e-07
3.54614e-07
3.4016e-07
3.42011e-07
3.08528e-07
3.37574e-07
3.04002e-07
3.49942e-07
3.39488e-07
3.51022e-07
5.59139e-07
3.38059e-07
3.35946e-07
3.38129e-07
3.23635e-07
3.37483e-07
3.32801e-07
3.26372e-07
3.22916e-07
3.27282e-07
3.12926e-07
3.36309e-07
3.38188e-07
3.25564e-07
3.27144e-07
3.02884e-07
3.21791e-07
2.9964e-07
3.36566e-07
3.26326e-07
3.34131e-07
4.78617e-07
3.22606e-07
3.1941e-07
3.20802e-07
3.0759e-07
3.22893e-07
3.20084e-07
3.1315e-07
3.1192e-07
3.10216e-07
2.98412e-07
3.2226e-07
3.23565e-07
3.12166e-07
3.13596e-07
2.9858e-07
3.07775e-07
2.95939e-07
3.23236e-07
3.1121e-07
3.18795e-07
4.02906e-07
3.08711e-07
3.04421e-07
3.04891e-07
2.9241e-07
3.10063e-07
3.09244e-07
3.01595e-07
3.02851e-07
2.96041e-07
2.8576e-07
3.08851e-07
3.10516e-07
3.01168e-07
3.01836e-07
2.95284e-07
2.95513e-07
2.92888e-07
3.08121e-07
2.97891e-07
3.05977e-07
3.61129e-07
2.98817e-07
2.91087e-07
2.89832e-07
2.78584e-07
2.98944e-07
3.00826e-07
2.91621e-07
2.93906e-07
2.83628e-07
2.74555e-07
2.98834e-07
2.99159e-07
2.90992e-07
2.91942e-07
2.9184e-07
2.85413e-07
2.88225e-07
2.95456e-07
2.85145e-07
2.96501e-07
3.23508e-07
2.89688e-07
2.8007e-07
2.76229e-07
2.66143e-07
2.89367e-07
2.91318e-07
2.83092e-07
2.83702e-07
2.72566e-07
2.6401e-07
2.88144e-07
2.89779e-07
2.80396e-07
2.83385e-07
2.87207e-07
2.76935e-07
2.8395e-07
2.82574e-07
2.69723e-07
2.87423e-07
2.79516e-07
2.80752e-07
2.69985e-07
2.64022e-07
2.5557e-07
2.81187e-07
2.81562e-07
2.75886e-07
2.75658e-07
2.62172e-07
2.55079e-07
2.78236e-07
2.8142e-07
2.72964e-07
2.75773e-07
2.8286e-07
2.70808e-07
2.80113e-07
2.67038e-07
2.55974e-07
2.78653e-07
2.45664e-07
2.72799e-07
2.60702e-07
2.53778e-07
2.47225e-07
2.74356e-07
2.73779e-07
2.69863e-07
2.68978e-07
2.53507e-07
2.47531e-07
2.71729e-07
2.74106e-07
2.69075e-07
2.69487e-07
2.79361e-07
2.65745e-07
2.77269e-07
2.53879e-07
2.44196e-07
2.71067e-07
2.25276e-07
2.66557e-07
2.53128e-07
2.45913e-07
2.41971e-07
2.68551e-07
2.67747e-07
2.6501e-07
2.65619e-07
2.46213e-07
2.41504e-07
2.68342e-07
2.68153e-07
2.66345e-07
2.64435e-07
2.76456e-07
2.6153e-07
2.74231e-07
2.42706e-07
2.33971e-07
2.65146e-07
2.16492e-07
2.61519e-07
2.47227e-07
2.41147e-07
2.38132e-07
2.6412e-07
2.6508e-07
2.61716e-07
2.62935e-07
2.4047e-07
2.35458e-07
2.66209e-07
2.63526e-07
2.66508e-07
2.61122e-07
2.73539e-07
2.58039e-07
2.71795e-07
2.33237e-07
2.25559e-07
2.60563e-07
2.14939e-07
2.58634e-07
2.40681e-07
2.37732e-07
2.3388e-07
2.61008e-07
2.62192e-07
2.59916e-07
2.60561e-07
2.34889e-07
2.29652e-07
2.6655e-07
2.60486e-07
2.64494e-07
2.59377e-07
2.71587e-07
2.56431e-07
2.71131e-07
2.25029e-07
2.2064e-07
2.58075e-07
2.18562e-07
2.57411e-07
2.34954e-07
2.33433e-07
2.27911e-07
2.59919e-07
2.6054e-07
2.60417e-07
2.60913e-07
2.29195e-07
2.24554e-07
2.62597e-07
2.5938e-07
2.56542e-07
2.59951e-07
2.7121e-07
2.55649e-07
2.72308e-07
2.20685e-07
2.21365e-07
2.57491e-07
2.367e-07
2.58577e-07
2.31318e-07
2.275e-07
2.21875e-07
2.60714e-07
2.61149e-07
2.61952e-07
2.62592e-07
2.24224e-07
2.20866e-07
2.54632e-07
2.60219e-07
2.4924e-07
2.62099e-07
2.73036e-07
2.56464e-07
2.76971e-07
2.2193e-07
2.26942e-07
2.59161e-07
2.73177e-07
2.61267e-07
2.31059e-07
2.2167e-07
2.17525e-07
2.62533e-07
2.63291e-07
2.65573e-07
2.65918e-07
2.20944e-07
2.20625e-07
2.48681e-07
2.62995e-07
2.4917e-07
2.67524e-07
2.78771e-07
2.60331e-07
2.84406e-07
2.28771e-07
2.40904e-07
2.6231e-07
3.40273e-07
2.66388e-07
2.32803e-07
2.18098e-07
2.19483e-07
2.67112e-07
2.67449e-07
2.72967e-07
2.74416e-07
2.21676e-07
2.267e-07
2.50119e-07
2.69446e-07
2.56259e-07
2.76048e-07
2.86421e-07
2.70222e-07
2.93093e-07
2.44209e-07
2.59919e-07
2.67898e-07
4.20689e-07
2.73758e-07
2.36154e-07
2.2155e-07
2.28713e-07
2.75852e-07
2.76895e-07
2.85369e-07
2.85114e-07
2.28426e-07
2.3347e-07
2.59713e-07
2.79105e-07
2.68545e-07
2.87156e-07
2.95918e-07
2.81775e-07
3.05742e-07
2.62869e-07
2.73037e-07
2.76253e-07
4.71057e-07
2.84493e-07
2.4313e-07
2.33097e-07
2.46921e-07
2.8979e-07
2.90325e-07
3.05856e-07
3.03535e-07
2.37697e-07
2.51243e-07
2.73196e-07
2.90699e-07
2.90588e-07
3.08427e-07
3.10592e-07
3.01357e-07
3.29893e-07
2.74492e-07
2.82637e-07
2.89094e-07
4.82291e-07
3.03232e-07
2.61351e-07
2.52776e-07
2.78813e-07
3.0971e-07
3.0955e-07
3.37246e-07
3.3423e-07
2.56405e-07
2.867e-07
2.93825e-07
3.10829e-07
3.16787e-07
3.38338e-07
3.37644e-07
3.33354e-07
3.67205e-07
2.84839e-07
3.06418e-07
3.09324e-07
4.46196e-07
3.34002e-07
2.95811e-07
3.0378e-07
3.25486e-07
3.54318e-07
3.44814e-07
3.72572e-07
3.78659e-07
2.963e-07
3.57616e-07
3.33173e-07
3.52662e-07
3.51799e-07
3.7378e-07
3.77969e-07
3.78605e-07
4.2662e-07
3.2792e-07
3.32561e-07
3.42448e-07
4.25855e-07
3.85347e-07
3.73258e-07
3.32052e-07
5.36871e-07
3.82377e-07
4.00294e-07
4.6514e-07
4.49634e-07
3.73151e-07
4.71738e-07
3.64015e-07
3.82271e-07
4.38787e-07
4.57856e-07
4.43952e-07
4.48133e-07
4.7874e-07
3.36929e-07
5.30992e-07
3.97366e-07
5.15751e-07
4.46877e-07
4.61513e-07
5.6596e-07
6.56631e-07
4.91469e-07
4.61544e-07
5.50965e-07
6.1424e-07
4.93197e-07
8.48436e-07
4.62023e-07
4.83925e-07
5.42138e-07
5.63322e-07
5.0078e-07
5.9737e-07
6.2877e-07
5.96859e-07
7.18477e-07
4.66257e-07
6.16306e-07
5.95243e-07
7.90479e-07
6.84224e-07
1.23563e-06
5.61608e-07
6.3194e-07
7.74347e-07
6.51428e-07
8.75383e-07
7.57286e-07
5.51283e-07
5.91733e-07
7.24938e-07
7.14242e-07
6.40711e-07
6.54199e-07
6.93336e-07
7.56777e-07
1.05811e-06
6.17132e-07
7.24984e-07
6.57668e-07
8.42527e-07
1.42292e-06
1.41743e-06
8.30595e-07
7.85503e-07
8.79557e-07
1.17044e-06
1.01019e-06
3.21754e-06
7.94995e-07
7.47212e-07
8.56926e-07
9.46636e-07
8.03376e-07
1.12236e-06
9.85004e-07
1.16903e-06
1.67649e-06
7.46546e-07
9.3668e-07
9.98884e-07
2.04725e-06
1.45028e-06
3.09961e-06
9.12323e-07
1.14355e-06
1.37749e-06
1.16177e-06
2.949e-06
2.02098e-06
8.92078e-07
1.03174e-06
1.33578e-06
1.23571e-06
9.97366e-07
1.16865e-06
1.12172e-06
1.96353e-06
2.48307e-06
1.02346e-06
1.25094e-06
1.1288e-06
1.94849e-06
3.34115e-06
3.30863e-06
1.47089e-06
1.31476e-06
1.53767e-06
1.53951e-06
2.64875e-06
3.61495e-06
1.43324e-06
1.27393e-06
1.51219e-06
1.73653e-06
1.1851e-06
1.54977e-06
1.77987e-06
2.61943e-06
3.9841e-06
1.20888e-06
1.69802e-06
1.79875e-06
4.56559e-06
3.35297e-06
6.26716e-06
1.64601e-06
1.77574e-06
2.2603e-06
2.19494e-06
3.69405e-06
6.19938e-06
1.60308e-06
1.92078e-06
2.16402e-06
2.09138e-06
1.97864e-06
2.13919e-06
2.13333e-06
4.65201e-06
5.39521e-06
1.96573e-06
2.11601e-06
2.08029e-06
5.12311e-06
6.47895e-06
7.4341e-06
2.29679e-06
2.31907e-06
2.80109e-06
2.64507e-06
6.35162e-06
7.31456e-06
2.23162e-06
2.13296e-06
2.8422e-06
2.83256e-06
2.14354e-06
2.69937e-06
2.91102e-06
5.39716e-06
8.16496e-06
2.10316e-06
2.83232e-06
2.96084e-06
8.61094e-06
8.19054e-06
9.18224e-06
2.97207e-06
2.79394e-06
3.31404e-06
3.66986e-06
8.02e-06
9.69236e-06
2.96612e-06
3.08595e-06
3.21634e-06
3.41482e-06
3.13508e-06
3.61358e-06
3.29525e-06
8.89292e-06
9.83335e-06
3.1413e-06
3.37219e-06
3.28992e-06
9.26427e-06
9.65073e-06
1.29514e-05
3.73229e-06
3.88783e-06
4.50363e-06
4.11871e-06
1.04782e-05
1.20397e-05
3.60956e-06
3.50702e-06
4.53695e-06
4.53416e-06
3.43941e-06
4.0865e-06
4.64254e-06
1.01257e-05
1.20939e-05
3.48105e-06
4.53198e-06
4.65765e-06
1.34861e-05
1.31262e-05
1.3928e-05
4.54051e-06
4.28629e-06
5.10156e-06
5.79798e-06
1.22217e-05
1.61523e-05
4.58427e-06
4.76756e-06
5.03615e-06
5.05616e-06
4.76547e-06
5.75076e-06
4.95568e-06
1.29079e-05
1.45403e-05
4.75256e-06
5.05407e-06
4.94334e-06
1.37592e-05
1.50424e-05
1.80364e-05
5.82736e-06
6.09513e-06
6.77433e-06
6.27736e-06
1.67333e-05
1.65599e-05
5.71786e-06
5.39344e-06
6.72443e-06
6.92234e-06
5.333e-06
6.19344e-06
6.90654e-06
1.4918e-05
1.81957e-05
5.35122e-06
6.91921e-06
6.89474e-06
1.82557e-05
1.81005e-05
1.84823e-05
6.80197e-06
6.30004e-06
7.20974e-06
7.52208e-06
1.65958e-05
1.91805e-05
6.76795e-06
7.0667e-06
7.24115e-06
7.22134e-06
7.01256e-06
7.55858e-06
7.18142e-06
1.84899e-05
1.84899e-05
7.00198e-06
7.19397e-06
7.18859e-06
1.83819e-05
1.94606e-05
2.2539e-05
7.93344e-06
8.20533e-06
9.41027e-06
9.50033e-06
2.0312e-05
2.24546e-05
7.87816e-06
7.46667e-06
9.38456e-06
9.50993e-06
7.50106e-06
9.49139e-06
9.42739e-06
1.88486e-05
2.26205e-05
7.55195e-06
9.51112e-06
9.44118e-06
2.27034e-05
2.27428e-05
2.31483e-05
9.6661e-06
9.70385e-06
1.0358e-05
1.0288e-05
2.26485e-05
2.30762e-05
9.70929e-06
9.8872e-06
1.03105e-05
1.04719e-05
9.81386e-06
1.02713e-05
1.04302e-05
2.31147e-05
2.34562e-05
9.79694e-06
1.04713e-05
1.04544e-05
2.33655e-05
2.34732e-05
2.5074e-05
1.06426e-05
1.06735e-05
1.19725e-05
1.19537e-05
2.34157e-05
2.51076e-05
1.05569e-05
1.0707e-05
1.20345e-05
1.19467e-05
1.06842e-05
1.20129e-05
1.19236e-05
2.36679e-05
2.49488e-05
1.07e-05
1.18498e-05
1.19038e-05
2.50204e-05
2.55389e-05
2.67166e-05
1.24995e-05
1.23449e-05
1.37655e-05
1.38761e-05
2.55406e-05
2.67715e-05
1.25747e-05
1.24729e-05
1.35931e-05
1.38111e-05
1.23748e-05
1.37972e-05
1.37362e-05
2.54747e-05
2.68526e-05
1.23991e-05
1.3845e-05
1.3782e-05
2.67636e-05
2.70313e-05
2.82269e-05
1.41132e-05
1.43453e-05
1.54307e-05
1.53079e-05
2.71381e-05
2.81049e-05
1.39462e-05
1.41811e-05
1.55796e-05
1.55667e-05
1.41926e-05
1.53158e-05
1.54107e-05
2.71688e-05
2.81748e-05
1.4186e-05
1.5479e-05
1.54084e-05
2.81484e-05
2.86277e-05
2.95283e-05
1.59846e-05
1.57856e-05
1.73443e-05
1.74632e-05
2.84373e-05
2.96683e-05
1.61192e-05
1.60614e-05
1.72066e-05
1.7205e-05
1.58399e-05
1.74743e-05
1.72646e-05
2.8534e-05
2.95369e-05
1.58829e-05
1.72234e-05
1.73012e-05
2.9563e-05
2.97902e-05
3.07906e-05
1.7639e-05
1.78041e-05
1.89945e-05
1.89094e-05
2.99657e-05
3.06957e-05
1.7533e-05
1.76305e-05
1.90123e-05
1.92677e-05
1.77095e-05
1.89364e-05
1.9057e-05
2.98477e-05
3.08866e-05
1.77103e-05
1.92336e-05
1.90301e-05
3.07868e-05
3.11729e-05
3.21426e-05
1.96371e-05
1.95003e-05
2.10443e-05
2.10846e-05
3.10104e-05
3.21578e-05
1.96025e-05
1.97072e-05
2.10607e-05
2.08593e-05
1.95211e-05
2.09854e-05
2.09632e-05
3.11793e-05
3.20149e-05
1.95226e-05
2.08749e-05
2.10223e-05
3.21267e-05
3.23764e-05
3.32305e-05
2.13471e-05
2.14286e-05
2.27439e-05
2.26294e-05
3.24172e-05
3.31963e-05
2.14289e-05
2.13958e-05
2.26611e-05
2.29129e-05
2.14701e-05
2.27172e-05
2.27511e-05
3.23377e-05
3.32994e-05
2.15083e-05
2.2887e-05
2.27295e-05
3.3217e-05
3.35711e-05
3.44854e-05
2.33453e-05
2.32035e-05
2.46473e-05
2.47517e-05
3.35092e-05
3.44575e-05
2.3194e-05
2.32502e-05
2.47337e-05
2.44606e-05
2.31275e-05
2.46423e-05
2.45717e-05
3.35102e-05
3.42767e-05
2.31182e-05
2.4369e-05
2.45533e-05
3.44082e-05
3.47022e-05
3.5491e-05
2.49748e-05
2.50722e-05
2.6328e-05
2.61421e-05
3.46737e-05
3.54306e-05
2.51383e-05
2.50289e-05
2.62503e-05
2.64338e-05
2.51075e-05
2.63178e-05
2.64021e-05
3.46285e-05
3.56412e-05
2.50589e-05
2.6467e-05
2.63345e-05
3.55766e-05
3.57813e-05
3.66301e-05
2.68594e-05
2.67394e-05
2.80665e-05
2.84655e-05
3.57651e-05
3.68709e-05
2.66912e-05
2.67825e-05
2.81042e-05
2.81189e-05
2.68065e-05
2.82891e-05
2.80631e-05
3.5837e-05
3.66338e-05
2.67625e-05
2.80395e-05
2.80902e-05
3.66475e-05
3.68434e-05
3.77339e-05
2.84019e-05
2.87854e-05
2.97264e-05
2.95726e-05
3.70492e-05
3.75147e-05
2.85608e-05
2.8652e-05
2.98886e-05
2.98873e-05
2.846e-05
2.94992e-05
2.97835e-05
3.69554e-05
3.78405e-05
2.85047e-05
2.98629e-05
2.98171e-05
3.77863e-05
3.802e-05
3.88747e-05
3.023e-05
3.00036e-05
3.15061e-05
3.14578e-05
3.77748e-05
3.89536e-05
3.02944e-05
3.01911e-05
3.13628e-05
3.13053e-05
3.02447e-05
3.15954e-05
3.13552e-05
3.80139e-05
3.86989e-05
3.02495e-05
3.12611e-05
3.12938e-05
3.87724e-05
3.90714e-05
3.97893e-05
3.18509e-05
3.18231e-05
3.29336e-05
3.28839e-05
3.91819e-05
3.97514e-05
3.17004e-05
3.17444e-05
3.28692e-05
3.30433e-05
3.17138e-05
3.30239e-05
3.31581e-05
3.89766e-05
3.99643e-05
3.16569e-05
3.30588e-05
3.31479e-05
4.00411e-05
4.00166e-05
4.08554e-05
3.32692e-05
3.32812e-05
3.42742e-05
3.44735e-05
3.9975e-05
4.09635e-05
3.32504e-05
3.33939e-05
3.44074e-05
3.43631e-05
3.35621e-05
3.44566e-05
3.43334e-05
4.01755e-05
4.08074e-05
3.35577e-05
3.4324e-05
3.43065e-05
4.0804e-05
4.11032e-05
4.19002e-05
3.47031e-05
3.48818e-05
3.58147e-05
3.57664e-05
4.12149e-05
4.18498e-05
3.48811e-05
3.4767e-05
3.60071e-05
3.58179e-05
3.47098e-05
3.60091e-05
3.59461e-05
4.10199e-05
4.18025e-05
3.46759e-05
3.58057e-05
3.5928e-05
4.18898e-05
4.20452e-05
4.26771e-05
3.6052e-05
3.59421e-05
3.69729e-05
3.68599e-05
4.19679e-05
4.25643e-05
3.61983e-05
3.60468e-05
3.69974e-05
3.6971e-05
3.61748e-05
3.68344e-05
3.68804e-05
4.1971e-05
4.26687e-05
3.61681e-05
3.69258e-05
3.68567e-05
4.25315e-05
4.2978e-05
4.39444e-05
3.74544e-05
3.73763e-05
3.87611e-05
3.87501e-05
4.28762e-05
4.39197e-05
3.74801e-05
3.74592e-05
3.87691e-05
3.87284e-05
3.73397e-05
3.86486e-05
3.87505e-05
4.29659e-05
4.39111e-05
3.72968e-05
3.86973e-05
3.87267e-05
4.39112e-05
4.40138e-05
4.34696e-05
3.89073e-05
3.89036e-05
3.88291e-05
3.88313e-05
4.39988e-05
4.34949e-05
3.88959e-05
3.88527e-05
3.87807e-05
3.87404e-05
3.89301e-05
3.8767e-05
3.88763e-05
4.39811e-05
4.34409e-05
3.89297e-05
3.87877e-05
3.89072e-05
4.35643e-05
4.34552e-05
4.36936e-05
3.87091e-05
3.87112e-05
3.87877e-05
3.87869e-05
4.34819e-05
4.37066e-05
3.86441e-05
3.86143e-05
3.8696e-05
3.87021e-05
3.87273e-05
3.87108e-05
3.87067e-05
4.34264e-05
4.36683e-05
3.87636e-05
3.8716e-05
3.87384e-05
4.36246e-05
4.41037e-05
4.64128e-05
3.92972e-05
3.92938e-05
4.18035e-05
4.18138e-05
4.4113e-05
4.64188e-05
3.91794e-05
3.92425e-05
4.17755e-05
4.18278e-05
3.90712e-05
4.17885e-05
4.1697e-05
4.40862e-05
4.64289e-05
3.90921e-05
4.17842e-05
4.16912e-05
4.63354e-05
4.68834e-05
4.86025e-05
4.25566e-05
4.25682e-05
4.44296e-05
4.44406e-05
4.68913e-05
4.86177e-05
4.25427e-05
4.25913e-05
4.44271e-05
4.44651e-05
4.24892e-05
4.44583e-05
4.44377e-05
4.69039e-05
4.86307e-05
4.24797e-05
4.44545e-05
4.44281e-05
4.86112e-05
4.88978e-05
4.93375e-05
4.48755e-05
4.48858e-05
4.54816e-05
4.54891e-05
4.8914e-05
4.93532e-05
4.4872e-05
4.49062e-05
4.5474e-05
4.54982e-05
4.48963e-05
4.55096e-05
4.5519e-05
4.89255e-05
4.93574e-05
4.48888e-05
4.55087e-05
4.5517e-05
4.93791e-05
4.93109e-05
4.73402e-05
4.54845e-05
4.54913e-05
4.43198e-05
4.43108e-05
4.93254e-05
4.73364e-05
4.54764e-05
4.54991e-05
4.43025e-05
4.42964e-05
4.55228e-05
4.43243e-05
4.43576e-05
4.93279e-05
4.73317e-05
4.55214e-05
4.43246e-05
4.43671e-05
4.73779e-05
4.71512e-05
4.5016e-05
4.36074e-05
4.35952e-05
4.16937e-05
4.16773e-05
4.71462e-05
4.50034e-05
4.35884e-05
4.35813e-05
4.16732e-05
4.16679e-05
4.36334e-05
4.16777e-05
4.16936e-05
4.71419e-05
4.50049e-05
4.36428e-05
4.16835e-05
4.17005e-05
4.50221e-05
4.48459e-05
4.29229e-05
4.10736e-05
4.10579e-05
3.94429e-05
3.94322e-05
4.48335e-05
4.29154e-05
4.10543e-05
4.10506e-05
3.94288e-05
3.94315e-05
4.10689e-05
3.94286e-05
3.94336e-05
4.48354e-05
4.29204e-05
4.10743e-05
3.94338e-05
3.94349e-05
4.29193e-05
4.28461e-05
4.26836e-05
3.90959e-05
3.90871e-05
3.88362e-05
3.88308e-05
4.28397e-05
4.26815e-05
3.90835e-05
3.90879e-05
3.88269e-05
3.8834e-05
3.9087e-05
3.88272e-05
3.88298e-05
4.28444e-05
4.26867e-05
3.90874e-05
3.8831e-05
3.88286e-05
4.26823e-05
4.29902e-05
4.52681e-05
3.90463e-05
3.90438e-05
4.15237e-05
4.15241e-05
4.29888e-05
4.52673e-05
3.90397e-05
3.90483e-05
4.15203e-05
4.1527e-05
3.90431e-05
4.1522e-05
4.15256e-05
4.29939e-05
4.52708e-05
3.90407e-05
4.15244e-05
4.15234e-05
4.52702e-05
4.58093e-05
4.82114e-05
4.23954e-05
4.23958e-05
4.48894e-05
4.48902e-05
4.58085e-05
4.82108e-05
4.23925e-05
4.23979e-05
4.48877e-05
4.48905e-05
4.23976e-05
4.48887e-05
4.48919e-05
4.58116e-05
4.82123e-05
4.23958e-05
4.48905e-05
4.48903e-05
4.82133e-05
4.86782e-05
5.04129e-05
4.56309e-05
4.56318e-05
4.74523e-05
4.74531e-05
4.86777e-05
5.04122e-05
4.56297e-05
4.56317e-05
4.74515e-05
4.74525e-05
4.56334e-05
4.74523e-05
4.74547e-05
4.86788e-05
5.04129e-05
4.5632e-05
4.74538e-05
4.74538e-05
5.04144e-05
5.07106e-05
5.16479e-05
4.79166e-05
4.79172e-05
4.89189e-05
4.89193e-05
5.071e-05
5.16474e-05
4.7916e-05
4.79167e-05
4.89184e-05
4.89189e-05
4.79191e-05
4.89195e-05
4.89216e-05
5.07105e-05
5.1648e-05
4.79183e-05
4.8921e-05
4.89213e-05
5.16498e-05
5.18053e-05
5.22229e-05
4.91448e-05
4.91452e-05
4.95998e-05
4.96e-05
5.18049e-05
5.22226e-05
4.91444e-05
4.91449e-05
4.95994e-05
4.95999e-05
4.91477e-05
4.96011e-05
4.96028e-05
5.18055e-05
5.22233e-05
4.91475e-05
4.96024e-05
4.96028e-05
5.22251e-05
5.23042e-05
5.2474e-05
4.96988e-05
4.9699e-05
4.98963e-05
4.98966e-05
5.23041e-05
5.24741e-05
4.96985e-05
4.96989e-05
4.9896e-05
4.98963e-05
4.97019e-05
4.98981e-05
4.98994e-05
5.23046e-05
5.24744e-05
4.97018e-05
4.98991e-05
4.98994e-05
5.24763e-05
5.25183e-05
5.2567e-05
4.99372e-05
4.99376e-05
5.00061e-05
5.00066e-05
5.25184e-05
5.25673e-05
4.9937e-05
4.99372e-05
5.0006e-05
5.00061e-05
4.99403e-05
5.0008e-05
5.00092e-05
5.25186e-05
5.25674e-05
4.99404e-05
5.00089e-05
5.00093e-05
5.25693e-05
5.25918e-05
5.2588e-05
5.00153e-05
5.00158e-05
5.00206e-05
5.0021e-05
5.25921e-05
5.2588e-05
5.00152e-05
5.00152e-05
5.00205e-05
5.00205e-05
5.00184e-05
5.00223e-05
5.00238e-05
5.25921e-05
5.25882e-05
5.00185e-05
5.00234e-05
5.00239e-05
5.25903e-05
5.26058e-05
5.25693e-05
5.00184e-05
5.00188e-05
5.00159e-05
5.00163e-05
5.26058e-05
5.25695e-05
5.00183e-05
5.00184e-05
5.00158e-05
5.00159e-05
5.00217e-05
5.00177e-05
5.00191e-05
5.2606e-05
5.25698e-05
5.00218e-05
5.00188e-05
5.00192e-05
5.25717e-05
5.25921e-05
5.25989e-05
5.00195e-05
5.00201e-05
5.00315e-05
5.0032e-05
5.25927e-05
5.25992e-05
5.00194e-05
5.00196e-05
5.00314e-05
5.00314e-05
5.00227e-05
5.00334e-05
5.00345e-05
5.25926e-05
5.25991e-05
5.00227e-05
5.00342e-05
5.00345e-05
5.2601e-05
5.26192e-05
5.25822e-05
5.00315e-05
5.0032e-05
5.00229e-05
5.00233e-05
5.26195e-05
5.25819e-05
5.00314e-05
5.00314e-05
5.00228e-05
5.00228e-05
5.00345e-05
5.00247e-05
5.0026e-05
5.26194e-05
5.25822e-05
5.00345e-05
5.00257e-05
5.00261e-05
5.25841e-05
5.25984e-05
5.25839e-05
5.00218e-05
5.00222e-05
5.00251e-05
5.00258e-05
5.25982e-05
5.25845e-05
5.00217e-05
5.00218e-05
5.0025e-05
5.00253e-05
5.00249e-05
5.00271e-05
5.00285e-05
5.25984e-05
5.25848e-05
5.00251e-05
5.00282e-05
5.00286e-05
5.25868e-05
5.26064e-05
5.25955e-05
5.0027e-05
5.00276e-05
5.00267e-05
5.0027e-05
5.26069e-05
5.25951e-05
5.00269e-05
5.00271e-05
5.00266e-05
5.00265e-05
5.00303e-05
5.00284e-05
5.00296e-05
5.26071e-05
5.25953e-05
5.00303e-05
5.00292e-05
5.00295e-05
5.25971e-05
5.26119e-05
5.25768e-05
5.0025e-05
5.00253e-05
5.00234e-05
5.00239e-05
5.26113e-05
5.2577e-05
5.00251e-05
5.00249e-05
5.00233e-05
5.00234e-05
5.0028e-05
5.00253e-05
5.00266e-05
5.26114e-05
5.25773e-05
5.0028e-05
5.00264e-05
5.00267e-05
5.25792e-05
5.25968e-05
5.25964e-05
5.00238e-05
5.00244e-05
5.00267e-05
5.00271e-05
5.25974e-05
5.25964e-05
5.00238e-05
5.00239e-05
5.00266e-05
5.00267e-05
5.00271e-05
5.00285e-05
5.00298e-05
5.25977e-05
5.25967e-05
5.00273e-05
5.00296e-05
5.00299e-05
5.25986e-05
5.26145e-05
5.25767e-05
5.0026e-05
5.00264e-05
5.00234e-05
5.00241e-05
5.26142e-05
5.25771e-05
5.00259e-05
5.00259e-05
5.00233e-05
5.00234e-05
5.00291e-05
5.00255e-05
5.00267e-05
5.26144e-05
5.25773e-05
5.0029e-05
5.00264e-05
5.00267e-05
5.25792e-05
5.25969e-05
5.25951e-05
5.00244e-05
5.00252e-05
5.00256e-05
5.0026e-05
5.2598e-05
5.25946e-05
5.00243e-05
5.00245e-05
5.00257e-05
5.00257e-05
5.00277e-05
5.00274e-05
5.00288e-05
5.2598e-05
5.25951e-05
5.00278e-05
5.00285e-05
5.00289e-05
5.25972e-05
5.26124e-05
5.25785e-05
5.00247e-05
5.00251e-05
5.00243e-05
5.00253e-05
5.26111e-05
5.25803e-05
5.00246e-05
5.00246e-05
5.00241e-05
5.00244e-05
5.00279e-05
5.00265e-05
5.00277e-05
5.26118e-05
5.25799e-05
5.00281e-05
5.00274e-05
5.00277e-05
5.25815e-05
5.26007e-05
5.25908e-05
5.00249e-05
5.00258e-05
5.00246e-05
5.00252e-05
5.26037e-05
5.2588e-05
5.00248e-05
5.00252e-05
5.00245e-05
5.00247e-05
5.00283e-05
5.00265e-05
5.00279e-05
5.26028e-05
5.25892e-05
5.00281e-05
5.00275e-05
5.00279e-05
5.25918e-05
5.2606e-05
5.25869e-05
5.00246e-05
5.00252e-05
5.00245e-05
5.00253e-05
5.26034e-05
5.25901e-05
5.00245e-05
5.00246e-05
5.00242e-05
5.00246e-05
5.00279e-05
5.00266e-05
5.00278e-05
5.26044e-05
5.25897e-05
5.00279e-05
5.00275e-05
5.00279e-05
5.2591e-05
5.26094e-05
5.258e-05
5.00246e-05
5.00254e-05
5.00244e-05
5.00252e-05
5.26117e-05
5.25789e-05
5.00245e-05
5.00247e-05
5.00242e-05
5.00245e-05
5.0028e-05
5.00265e-05
5.00277e-05
5.26114e-05
5.25793e-05
5.0028e-05
5.00275e-05
5.00278e-05
5.25814e-05
5.25972e-05
5.25931e-05
5.00246e-05
5.00255e-05
5.00244e-05
5.00251e-05
5.25977e-05
5.25916e-05
5.00243e-05
5.00247e-05
5.00243e-05
5.00245e-05
5.0028e-05
5.00264e-05
5.00277e-05
5.25979e-05
5.25913e-05
5.00281e-05
5.00274e-05
5.00277e-05
5.25942e-05
5.26094e-05
5.2588e-05
5.00246e-05
5.00253e-05
5.00245e-05
5.00253e-05
5.26066e-05
5.25904e-05
5.00245e-05
5.00248e-05
5.00241e-05
5.00246e-05
5.00279e-05
5.00266e-05
5.00279e-05
5.26063e-05
5.25913e-05
5.00279e-05
5.00276e-05
5.00279e-05
5.25923e-05
5.26103e-05
5.25786e-05
5.00247e-05
5.00255e-05
5.00241e-05
5.0025e-05
5.26119e-05
5.25798e-05
5.00245e-05
5.00249e-05
5.0024e-05
5.00245e-05
5.00282e-05
5.00265e-05
5.00278e-05
5.26123e-05
5.25813e-05
5.00282e-05
5.00275e-05
5.00278e-05
5.25827e-05
5.25994e-05
5.25841e-05
5.00247e-05
5.00256e-05
5.00238e-05
5.00246e-05
5.2602e-05
5.2582e-05
5.00246e-05
5.0025e-05
5.00237e-05
5.0024e-05
5.00284e-05
5.0026e-05
5.00275e-05
5.26046e-05
5.25809e-05
5.00284e-05
5.00269e-05
5.00275e-05
5.25829e-05
5.26e-05
5.25931e-05
5.00245e-05
5.00254e-05
5.0024e-05
5.00245e-05
5.25989e-05
5.25898e-05
5.00245e-05
5.00249e-05
5.00239e-05
5.00239e-05
5.00286e-05
5.00261e-05
5.00276e-05
5.25985e-05
5.25887e-05
5.00285e-05
5.00269e-05
5.00275e-05
5.25921e-05
5.2611e-05
5.25868e-05
5.00248e-05
5.00253e-05
5.0024e-05
5.00245e-05
5.26049e-05
5.25924e-05
5.00248e-05
5.00247e-05
5.00238e-05
5.0024e-05
5.00281e-05
5.00261e-05
5.00276e-05
5.26038e-05
5.25929e-05
5.0028e-05
5.0027e-05
5.00275e-05
5.25928e-05
5.26099e-05
5.25787e-05
5.00253e-05
5.00256e-05
5.00235e-05
5.00243e-05
5.26118e-05
5.2586e-05
5.00252e-05
5.00251e-05
5.00234e-05
5.00237e-05
5.00289e-05
5.00256e-05
5.00269e-05
5.2612e-05
5.25864e-05
5.00288e-05
5.00264e-05
5.00268e-05
5.25846e-05
5.25986e-05
5.25853e-05
5.00253e-05
5.0026e-05
5.00235e-05
5.00238e-05
5.26096e-05
5.25784e-05
5.00252e-05
5.00255e-05
5.00235e-05
5.00233e-05
5.00289e-05
5.00252e-05
5.00265e-05
5.26098e-05
5.25788e-05
5.00287e-05
5.0026e-05
5.00264e-05
5.25808e-05
5.26016e-05
5.25888e-05
5.00259e-05
5.00263e-05
5.00228e-05
5.00235e-05
5.25984e-05
5.25887e-05
5.00258e-05
5.00258e-05
5.00229e-05
5.00229e-05
5.0029e-05
5.00251e-05
5.00265e-05
5.25995e-05
5.25864e-05
5.00288e-05
5.00258e-05
5.00264e-05
5.25917e-05
5.2604e-05
5.25905e-05
5.0026e-05
5.00266e-05
5.00228e-05
5.00232e-05
5.26044e-05
5.25895e-05
5.0026e-05
5.00261e-05
5.00229e-05
5.00228e-05
5.00296e-05
5.00247e-05
5.00261e-05
5.26023e-05
5.25914e-05
5.00293e-05
5.00257e-05
5.0026e-05
5.25922e-05
5.26123e-05
5.25792e-05
5.00275e-05
5.00279e-05
5.00222e-05
5.00227e-05
5.26115e-05
5.25795e-05
5.00275e-05
5.00275e-05
5.00222e-05
5.00223e-05
5.00308e-05
5.00242e-05
5.00256e-05
5.26126e-05
5.25805e-05
5.00306e-05
5.00249e-05
5.00254e-05
5.25815e-05
5.25976e-05
5.25891e-05
5.00285e-05
5.0029e-05
5.00203e-05
5.00207e-05
5.25987e-05
5.25869e-05
5.00284e-05
5.00286e-05
5.00202e-05
5.00205e-05
5.0032e-05
5.00222e-05
5.00234e-05
5.25996e-05
5.2589e-05
5.00318e-05
5.0023e-05
5.0023e-05
5.25842e-05
5.26044e-05
5.23783e-05
5.00104e-05
5.00109e-05
4.98367e-05
4.98377e-05
5.26025e-05
5.23794e-05
5.00103e-05
5.00104e-05
4.98383e-05
4.98356e-05
5.00134e-05
4.9841e-05
4.98396e-05
5.26055e-05
5.23771e-05
5.00131e-05
4.984e-05
4.9841e-05
5.2384e-05
5.21924e-05
4.87891e-05
4.87899e-05
5.21937e-05
4.87909e-05
4.87879e-05
3.6669e-05
3.6668e-05
3.66704e-05
4.87914e-05
5.21914e-05
4.87932e-05
2.55404e-06
3.73194e-07
1.61505e-06
1.61205e-06
1.07049e-07
3.43715e-07
5.22298e-07
8.67381e-07
9.83759e-08
4.02306e-07
8.79472e-07
4.57728e-07
3.60913e-07
3.67762e-07
2.69397e-07
3.05985e-07
4.94201e-06
2.60904e-07
6.62859e-06
1.40022e-05
2.16774e-05
3.00671e-07
5.00771e-06
2.5845e-07
6.664e-06
8.61807e-07
8.72165e-07
8.60711e-07
8.48461e-07
8.5006e-07
8.6323e-07
8.49079e-07
1.08599e-07
7.44318e-07
3.99469e-07
3.47024e-07
1.09267e-07
7.10951e-07
3.9444e-07
1.41265e-05
2.17164e-05
1.01156e-07
4.88606e-07
1.15147e-06
5.77843e-07
1.01364e-07
4.77103e-07
1.18532e-06
1.88246e-06
1.89512e-06
3.44885e-07
1.85854e-06
1.86853e-06
5.18789e-07
9.82286e-06
4.046e-07
1.24796e-05
3.68871e-05
4.6786e-05
5.10884e-07
8.95203e-06
4.22489e-07
1.23134e-05
8.52351e-07
8.64635e-07
8.51413e-07
8.58464e-07
8.60466e-07
8.69074e-07