/*--------------------------------*- C++ -*----------------------------------*\
| =========                 |                                                 |
| \\      /  F ield         | OpenFOAM: The Open Source CFD Toolbox           |
|  \\    /   O peration     | Version:  v1906                                 |
|   \\  /    A nd           | Web:      www.OpenFOAM.com                      |
|    \\/     M anipulation  |                                                 |
\*---------------------------------------------------------------------------*/
FoamFile
{
    version     2.0;
    format      ascii;
    class       volScalarField;
    location    "250";
    object      nut;
}
// * * * * * * * * * * * * * * * * * * * * * * * * * * * * * * * * * * * * * //

dimensions      [0 2 -1 0 0 0 0];


internalField   nonuniform List<scalar> 
171728
(
1.07321e-05
2.36031e-06
4.25727e-06
2.26989e-06
1.05599e-05
2.31983e-06
4.90627e-06
2.24455e-06
1.0789e-05
2.31451e-06
4.24372e-06
2.22541e-06
1.10306e-05
2.30786e-06
3.62199e-06
2.20606e-06
1.12805e-05
2.30475e-06
3.32175e-06
2.18962e-06
1.1539e-05
2.30664e-06
2.87712e-06
2.18286e-06
1.17938e-05
2.31116e-06
2.29336e-06
2.173e-06
1.2047e-05
2.31991e-06
1.85131e-06
2.15312e-06
1.23072e-05
2.31173e-06
1.59317e-06
2.13717e-06
1.25505e-05
2.29052e-06
1.44205e-06
2.12058e-06
1.28079e-05
2.24673e-06
1.3761e-06
2.07447e-06
1.30358e-05
2.20084e-06
1.41537e-06
2.00365e-06
1.32543e-05
2.12616e-06
1.63912e-06
1.93649e-06
1.34898e-05
2.04628e-06
2.10536e-06
1.8878e-06
1.37268e-05
1.97268e-06
3.00892e-06
1.82048e-06
1.39501e-05
1.92449e-06
3.96703e-06
1.71492e-06
1.4173e-05
1.84768e-06
4.22679e-06
1.58861e-06
1.43563e-05
1.78246e-06
3.59972e-06
1.515e-06
1.46306e-05
1.77933e-06
2.62646e-06
1.49513e-06
1.47177e-05
1.81023e-06
1.97627e-06
1.7213e-06
1.49174e-05
1.87669e-06
2.38674e-06
1.81931e-06
1.49473e-05
2.51623e-06
2.59076e-06
3.31404e-06
1.51535e-05
2.68724e-06
2.71677e-06
2.59163e-06
1.5081e-05
4.33209e-06
3.59113e-06
8.01397e-06
1.53453e-05
4.60355e-06
4.39032e-06
5.81234e-06
1.53208e-05
5.96323e-06
6.88134e-06
1.80053e-05
1.53406e-05
7.64952e-06
7.01594e-06
1.5481e-05
1.52925e-05
9.24549e-06
1.08964e-05
3.13837e-05
1.53654e-05
1.34414e-05
1.11803e-05
2.65392e-05
1.51195e-05
1.37691e-05
1.69157e-05
4.48772e-05
1.52547e-05
2.18791e-05
1.71941e-05
3.97832e-05
1.52565e-05
2.04207e-05
2.55143e-05
5.77359e-05
1.49103e-05
2.79159e-05
2.34203e-05
5.28807e-05
1.59917e-05
3.42082e-05
3.49564e-05
7.05779e-05
1.53865e-05
3.58134e-05
3.64052e-05
6.97455e-05
1.65441e-05
4.24026e-05
4.19344e-05
7.52698e-05
1.71099e-05
4.874e-05
4.8642e-05
8.04418e-05
1.88097e-05
5.34562e-05
5.45175e-05
8.44698e-05
2.01392e-05
6.15467e-05
6.02175e-05
8.9098e-05
2.20504e-05
6.5599e-05
6.70391e-05
9.2818e-05
2.49103e-05
7.32565e-05
7.32923e-05
9.73901e-05
2.70662e-05
7.86702e-05
7.8887e-05
0.000100695
3.11257e-05
8.53959e-05
8.48695e-05
0.000104961
3.39689e-05
9.13335e-05
9.12145e-05
0.000108729
3.8517e-05
9.79361e-05
9.7434e-05
0.000112512
4.34183e-05
0.000101625
0.000103068
0.000116612
4.90192e-05
0.000110027
0.000108187
0.000119763
5.46729e-05
0.000114635
0.00011512
0.00012524
5.93527e-05
0.000120754
0.000119656
0.000127478
6.81063e-05
0.000126141
0.000125165
0.000132308
7.2095e-05
0.000129958
0.000130457
0.000134792
8.50611e-05
0.000138866
0.000139054
0.000141349
8.70399e-05
0.000136868
0.000136979
0.000139016
8.15832e-05
0.000136238
0.000136248
0.000138414
0.000103924
0.000154623
0.000154637
0.00015136
0.000133017
0.000169515
0.000169529
0.00016263
0.000147502
0.000176055
0.000176062
0.000167963
0.000145976
0.000166807
0.000166812
0.000159542
0.000116302
0.000152302
0.000152333
0.000149439
9.31488e-05
0.000139819
0.000139842
0.000139017
8.17226e-05
0.00013606
0.000136071
0.000136451
0.000104974
0.000153498
0.000153504
0.000147945
0.000141736
0.000172078
0.000172078
0.000160921
0.000175013
0.000186212
0.000186209
0.00017072
0.000196023
0.000194146
0.000194143
0.0001761
0.000206328
0.000197782
0.000197778
0.000178541
0.000210903
0.000199381
0.000199374
0.000179596
0.000212655
0.000199933
0.000199926
0.000179979
0.000212937
0.000199961
0.000199956
0.00018007
0.000213006
0.000199949
0.000199942
0.000179947
0.000213112
0.000200045
0.000200037
0.00018012
0.000213067
0.000199978
0.000199971
0.000180012
0.00021308
0.000200009
0.000200002
0.000180034
0.000213079
0.0002
0.000199992
0.000180084
0.000213071
0.000199989
0.000199983
0.000179984
0.000213077
0.000200007
0.0002
0.000180105
0.000213073
0.000199995
0.000199988
0.000179986
0.000213074
0.000199998
0.000199991
0.000180092
0.000213072
0.000200001
0.000199991
0.000180011
0.000213072
0.000199997
0.00019999
0.00018005
0.000213072
0.000199999
0.000199991
0.000180071
0.000213072
0.000199999
0.000199992
0.000179988
0.000213072
0.000199998
0.000199991
0.000180064
0.000213071
0.0002
0.000199993
0.000180083
0.000213071
0.000200001
0.000199994
0.000180024
0.000213071
0.000199999
0.000199991
0.000179994
0.000213071
0.000199998
0.00019999
0.00018005
0.000213073
0.000200001
0.000199993
0.000180081
0.000213073
0.000200001
0.000199993
0.000180042
0.000213074
0.000200001
0.000199993
0.000179987
0.000213073
0.000200002
0.000199993
0.000180051
0.000213075
0.000200007
0.000199999
0.000180082
0.000213075
0.000200009
0.0002
0.000180007
0.000213031
0.000199918
0.000199909
0.00018004
0.000214595
0.000200779
0.000200772
0.000182963
2.3887e-06
2.47447e-06
2.43741e-06
2.28643e-06
2.51148e-06
2.52906e-06
1.1167e-05
1.11663e-05
1.13565e-05
1.11773e-05
2.47721e-06
2.23129e-06
2.31006e-06
3.41787e-06
2.45257e-06
2.27161e-06
2.37433e-06
2.37046e-06
2.33274e-06
2.2798e-06
2.32726e-06
2.27889e-06
2.2647e-06
2.25512e-06
2.34694e-06
2.41261e-06
2.33915e-06
2.39649e-06
1.87209e-06
2.32453e-06
1.90299e-06
2.28703e-06
2.3349e-06
2.35584e-06
4.86526e-06
2.33772e-06
2.25204e-06
2.34995e-06
2.34528e-06
2.32777e-06
2.28147e-06
2.32659e-06
2.29339e-06
2.22908e-06
2.21507e-06
2.33899e-06
2.39689e-06
2.34262e-06
2.39662e-06
1.9199e-06
2.3165e-06
1.9711e-06
2.31338e-06
2.37117e-06
2.33751e-06
4.47914e-06
2.33177e-06
2.24196e-06
2.32548e-06
2.31649e-06
2.32613e-06
2.30057e-06
2.32806e-06
2.32306e-06
2.19229e-06
2.19305e-06
2.34514e-06
2.39476e-06
2.34269e-06
2.39184e-06
1.98845e-06
2.30935e-06
2.0483e-06
2.34442e-06
2.36429e-06
2.32601e-06
3.72131e-06
2.31726e-06
2.2265e-06
2.2948e-06
2.27692e-06
2.32857e-06
2.32893e-06
2.33414e-06
2.36615e-06
2.17285e-06
2.17889e-06
2.33964e-06
2.39166e-06
2.35822e-06
2.39035e-06
2.07144e-06
2.3047e-06
2.13449e-06
2.3342e-06
2.36116e-06
2.32115e-06
3.39657e-06
2.34136e-06
2.20756e-06
2.25165e-06
2.23476e-06
2.33601e-06
2.37927e-06
2.34466e-06
2.39835e-06
2.15988e-06
2.16559e-06
2.36689e-06
2.39032e-06
2.37249e-06
2.39585e-06
2.15124e-06
2.30712e-06
2.19123e-06
2.33828e-06
2.35038e-06
2.34661e-06
3.01648e-06
2.35849e-06
2.20057e-06
2.21017e-06
2.19248e-06
2.34825e-06
2.39696e-06
2.35624e-06
2.38356e-06
2.14604e-06
2.14346e-06
2.36741e-06
2.39857e-06
2.35386e-06
2.39866e-06
2.20556e-06
2.30734e-06
2.24156e-06
2.32214e-06
2.2666e-06
2.36035e-06
2.42904e-06
2.35817e-06
2.19111e-06
2.16845e-06
2.15559e-06
2.35817e-06
2.38149e-06
2.35926e-06
2.36801e-06
2.12322e-06
2.12386e-06
2.35237e-06
2.39795e-06
2.35517e-06
2.38634e-06
2.25084e-06
2.31784e-06
2.27733e-06
2.23255e-06
2.17321e-06
2.35511e-06
1.94626e-06
2.34185e-06
2.17191e-06
2.13307e-06
2.1259e-06
2.35924e-06
2.35928e-06
2.34819e-06
2.33703e-06
2.10464e-06
2.10307e-06
2.36119e-06
2.38135e-06
2.38846e-06
2.36176e-06
2.28556e-06
2.31636e-06
2.3054e-06
2.14437e-06
2.0704e-06
2.3362e-06
1.6431e-06
2.3204e-06
2.15395e-06
2.10752e-06
2.11838e-06
2.34365e-06
2.33236e-06
2.31919e-06
2.33491e-06
2.08463e-06
2.08363e-06
2.39743e-06
2.35368e-06
2.41418e-06
2.32236e-06
2.30774e-06
2.29644e-06
2.30632e-06
2.04779e-06
1.95416e-06
2.31171e-06
1.46934e-06
2.28436e-06
2.13971e-06
2.10406e-06
2.10801e-06
2.31209e-06
2.33615e-06
2.28409e-06
2.3135e-06
2.06629e-06
2.03661e-06
2.42508e-06
2.31398e-06
2.45847e-06
2.27997e-06
2.3037e-06
2.25556e-06
2.29001e-06
1.94087e-06
1.8432e-06
2.27541e-06
1.38971e-06
2.25079e-06
2.08788e-06
2.09815e-06
2.06972e-06
2.27155e-06
2.29997e-06
2.24177e-06
2.2582e-06
2.02394e-06
1.96667e-06
2.46353e-06
2.26762e-06
2.43067e-06
2.23231e-06
2.28644e-06
2.21183e-06
2.26885e-06
1.83062e-06
1.78168e-06
2.23995e-06
1.38304e-06
2.2121e-06
2.01901e-06
2.05398e-06
1.97324e-06
2.23392e-06
2.24775e-06
2.2004e-06
2.21027e-06
1.94993e-06
1.8781e-06
2.39296e-06
2.22198e-06
2.25601e-06
2.18719e-06
2.26227e-06
2.14449e-06
2.24529e-06
1.77529e-06
1.7848e-06
2.20335e-06
1.56682e-06
2.17634e-06
1.95305e-06
1.95074e-06
1.83783e-06
2.18729e-06
2.19485e-06
2.13324e-06
2.14387e-06
1.85655e-06
1.7761e-06
2.20754e-06
2.1717e-06
2.05062e-06
2.12605e-06
2.24129e-06
2.06481e-06
2.24379e-06
1.7779e-06
1.81509e-06
2.16615e-06
1.9542e-06
2.12626e-06
1.90666e-06
1.80954e-06
1.68431e-06
2.11272e-06
2.12521e-06
2.05199e-06
2.05575e-06
1.75358e-06
1.67841e-06
2.0115e-06
2.10861e-06
1.91283e-06
2.06653e-06
2.24634e-06
1.98561e-06
2.23795e-06
1.816e-06
1.92057e-06
2.11241e-06
2.74749e-06
2.06721e-06
1.84663e-06
1.65627e-06
1.5713e-06
2.03354e-06
2.03559e-06
1.97215e-06
1.98932e-06
1.6515e-06
1.62335e-06
1.88477e-06
2.05286e-06
1.83193e-06
2.00033e-06
2.22911e-06
1.94054e-06
2.18196e-06
1.92654e-06
2.04075e-06
2.04796e-06
3.78172e-06
1.98547e-06
1.74467e-06
1.54475e-06
1.4815e-06
1.95737e-06
1.97144e-06
1.89266e-06
1.88884e-06
1.59701e-06
1.50704e-06
1.82678e-06
1.98834e-06
1.75494e-06
1.90556e-06
2.16384e-06
1.85721e-06
2.10036e-06
2.01601e-06
1.99134e-06
1.96487e-06
4.22218e-06
1.88764e-06
1.6248e-06
1.46312e-06
1.43185e-06
1.87654e-06
1.87906e-06
1.84906e-06
1.82039e-06
1.48115e-06
1.443e-06
1.73886e-06
1.87245e-06
1.74185e-06
1.87418e-06
2.08302e-06
1.79783e-06
2.07022e-06
1.92505e-06
1.76063e-06
1.87422e-06
3.82746e-06
1.81791e-06
1.5563e-06
1.41109e-06
1.33526e-06
1.80844e-06
1.79675e-06
1.78785e-06
1.77814e-06
1.40192e-06
1.42732e-06
1.70051e-06
1.82155e-06
1.64032e-06
1.79539e-06
2.06253e-06
1.77691e-06
2.076e-06
1.69425e-06
1.55465e-06
1.80025e-06
2.82486e-06
1.78443e-06
1.52188e-06
1.44498e-06
1.38542e-06
1.86327e-06
1.78229e-06
1.7607e-06
1.78566e-06
1.40031e-06
1.57142e-06
1.70908e-06
1.84825e-06
1.61699e-06
1.78035e-06
2.06933e-06
1.79396e-06
2.17829e-06
1.65108e-06
1.47335e-06
1.76988e-06
2.15952e-06
1.8469e-06
1.68536e-06
1.27952e-06
2.21888e-06
1.70045e-06
1.85358e-06
2.00301e-06
1.91552e-06
1.56167e-06
1.82192e-06
1.58785e-06
1.73227e-06
1.83554e-06
1.94363e-06
2.2216e-06
1.91822e-06
2.11911e-06
1.35899e-06
2.06837e-06
1.85013e-06
2.22245e-06
1.89033e-06
1.77295e-06
2.28935e-06
2.41226e-06
2.09409e-06
1.85559e-06
2.19711e-06
2.60138e-06
1.78964e-06
3.48578e-06
1.90019e-06
2.02099e-06
2.16489e-06
2.21731e-06
2.12767e-06
2.47385e-06
2.68719e-06
2.37847e-06
2.69665e-06
1.90213e-06
2.5671e-06
2.45683e-06
3.07995e-06
2.38641e-06
4.3503e-06
2.09444e-06
2.6393e-06
2.95094e-06
2.01018e-06
3.58686e-06
1.50824e-06
2.08072e-06
2.27421e-06
2.65598e-06
2.64655e-06
2.66229e-06
2.03677e-06
2.39203e-06
2.74651e-06
3.61105e-06
2.51437e-06
2.74117e-06
2.22704e-06
2.32353e-06
5.35979e-06
4.43401e-06
3.22271e-06
2.49015e-06
3.03458e-06
4.84195e-06
1.95983e-06
1.75196e-05
3.00348e-06
2.68893e-06
2.92811e-06
3.32357e-06
2.90323e-06
4.58339e-06
3.72445e-06
4.03891e-06
5.26238e-06
2.55474e-06
3.27912e-06
3.75719e-06
8.06729e-06
4.06428e-06
1.10415e-05
2.95181e-06
4.61945e-06
5.05318e-06
3.82629e-06
1.53375e-05
5.27846e-06
2.86115e-06
3.66252e-06
4.839e-06
4.32754e-06
3.63776e-06
3.84784e-06
3.67008e-06
6.50867e-06
8.11407e-06
3.7695e-06
4.44692e-06
3.69925e-06
5.42961e-06
1.22191e-05
1.00578e-05
5.50621e-06
4.52922e-06
4.98748e-06
4.90264e-06
7.81104e-06
1.12849e-05
5.3089e-06
4.26389e-06
4.93562e-06
6.02112e-06
3.70722e-06
5.00004e-06
6.22353e-06
8.26515e-06
1.22241e-05
3.82982e-06
5.77672e-06
6.40875e-06
1.5408e-05
9.24422e-06
2.16106e-05
5.14935e-06
5.93806e-06
8.07445e-06
7.59627e-06
1.06332e-05
2.14783e-05
5.01256e-06
6.943e-06
7.43528e-06
7.14715e-06
7.28712e-06
7.27594e-06
7.50041e-06
1.52582e-05
1.79816e-05
7.28943e-06
7.35361e-06
7.14486e-06
1.68503e-05
2.2243e-05
2.2923e-05
7.93543e-06
8.01838e-06
9.63994e-06
8.6916e-06
2.17286e-05
2.22891e-05
7.45656e-06
6.89961e-06
1.0016e-05
9.61948e-06
7.01194e-06
9.04243e-06
1.01372e-05
1.7009e-05
2.59589e-05
6.69792e-06
9.64598e-06
1.04824e-05
2.83797e-05
2.61327e-05
2.70192e-05
1.03111e-05
9.02719e-06
1.05511e-05
1.28393e-05
2.50979e-05
2.91671e-05
1.04173e-05
1.08126e-05
1.00534e-05
1.15138e-05
1.12854e-05
1.25689e-05
1.06849e-05
2.92891e-05
3.10554e-05
1.13505e-05
1.13157e-05
1.05566e-05
2.78907e-05
2.77654e-05
4.17794e-05
1.25004e-05
1.38187e-05
1.60922e-05
1.33884e-05
3.21159e-05
3.65006e-05
1.17468e-05
1.14027e-05
1.62734e-05
1.58709e-05
1.0776e-05
1.31545e-05
1.67562e-05
3.14355e-05
3.6109e-05
1.09332e-05
1.58704e-05
1.68947e-05
4.40972e-05
4.16972e-05
3.90535e-05
1.56686e-05
1.34779e-05
1.61234e-05
2.07486e-05
3.5749e-05
5.12772e-05
1.59697e-05
1.68637e-05
1.5878e-05
1.62443e-05
1.70885e-05
2.05941e-05
1.5652e-05
3.91451e-05
4.31041e-05
1.70373e-05
1.62715e-05
1.55717e-05
3.92382e-05
4.31651e-05
5.67826e-05
1.9856e-05
2.22835e-05
2.44873e-05
2.17133e-05
5.3954e-05
5.0139e-05
1.92737e-05
1.72829e-05
2.41374e-05
2.50711e-05
1.6901e-05
2.12045e-05
2.51066e-05
4.34451e-05
5.71081e-05
1.70181e-05
2.51251e-05
2.50078e-05
5.75624e-05
5.61929e-05
5.19647e-05
2.39098e-05
2.08268e-05
2.29283e-05
2.45814e-05
4.88934e-05
5.49521e-05
2.36822e-05
2.54702e-05
2.32842e-05
2.3489e-05
2.52255e-05
2.48298e-05
2.32312e-05
5.78479e-05
5.31231e-05
2.51237e-05
2.33846e-05
2.32045e-05
5.23812e-05
5.53452e-05
6.91107e-05
2.62591e-05
2.78147e-05
3.30774e-05
3.3679e-05
5.95688e-05
6.88098e-05
2.609e-05
2.36405e-05
3.28642e-05
3.32799e-05
2.38894e-05
3.36349e-05
3.28935e-05
5.32347e-05
6.87707e-05
2.41306e-05
3.33455e-05
3.301e-05
6.94015e-05
6.9382e-05
6.83634e-05
3.38878e-05
3.42051e-05
3.53442e-05
3.48277e-05
6.89989e-05
6.79842e-05
3.41394e-05
3.49473e-05
3.51433e-05
3.59944e-05
3.45928e-05
3.47556e-05
3.58246e-05
7.0695e-05
7.01021e-05
3.44989e-05
3.60999e-05
3.59651e-05
6.96529e-05
6.8905e-05
7.40049e-05
3.59669e-05
3.60518e-05
4.05183e-05
4.05507e-05
6.8588e-05
7.41998e-05
3.54836e-05
3.63401e-05
4.09125e-05
4.0309e-05
3.62862e-05
4.08471e-05
4.04018e-05
7.01474e-05
7.32281e-05
3.63918e-05
3.98032e-05
4.02131e-05
7.372e-05
7.55148e-05
7.92303e-05
4.2632e-05
4.17531e-05
4.71803e-05
4.76241e-05
7.55329e-05
7.94998e-05
4.32031e-05
4.23702e-05
4.62132e-05
4.72874e-05
4.20178e-05
4.72989e-05
4.68968e-05
7.50064e-05
7.98957e-05
4.20808e-05
4.75582e-05
4.72128e-05
7.9437e-05
7.9979e-05
8.38344e-05
4.81404e-05
4.94815e-05
5.23659e-05
5.17853e-05
8.05744e-05
8.32916e-05
4.7073e-05
4.83825e-05
5.32458e-05
5.31986e-05
4.8565e-05
5.18086e-05
5.25035e-05
8.0715e-05
8.36933e-05
4.8564e-05
5.27952e-05
5.24175e-05
8.35696e-05
8.5172e-05
8.80439e-05
5.45384e-05
5.33421e-05
5.95741e-05
6.01332e-05
8.41876e-05
8.86912e-05
5.54696e-05
5.50908e-05
5.87948e-05
5.85007e-05
5.38795e-05
6.01045e-05
5.88978e-05
8.47757e-05
8.79909e-05
5.40783e-05
5.85654e-05
5.91822e-05
8.81093e-05
8.86415e-05
9.17738e-05
6.01415e-05
6.11106e-05
6.42123e-05
6.38268e-05
8.95474e-05
9.14143e-05
5.94772e-05
5.97552e-05
6.43696e-05
6.60348e-05
6.0395e-05
6.42039e-05
6.48669e-05
8.88701e-05
9.25187e-05
6.0465e-05
6.60125e-05
6.46782e-05
9.19148e-05
9.30784e-05
9.66248e-05
6.68598e-05
6.60771e-05
7.21123e-05
7.23197e-05
9.23041e-05
9.67081e-05
6.66948e-05
6.75766e-05
7.21165e-05
7.07284e-05
6.64229e-05
7.14831e-05
7.13998e-05
9.33598e-05
9.59067e-05
6.63884e-05
7.07597e-05
7.17933e-05
9.65109e-05
9.71853e-05
9.98793e-05
7.27002e-05
7.32488e-05
7.71247e-05
7.65351e-05
9.74446e-05
9.98307e-05
7.31467e-05
7.2679e-05
7.6661e-05
7.85185e-05
7.32784e-05
7.71507e-05
7.7531e-05
9.69349e-05
0.000100579
7.35766e-05
7.86256e-05
7.74588e-05
9.99926e-05
0.000101049
0.000104566
7.95916e-05
7.87156e-05
8.425e-05
8.48213e-05
0.000100837
0.000104477
7.8592e-05
7.94074e-05
8.45117e-05
8.27862e-05
7.85412e-05
8.39937e-05
8.34449e-05
0.000101063
0.000103238
7.85467e-05
8.22069e-05
8.345e-05
0.000103967
0.000105125
0.000107724
8.50222e-05
8.56401e-05
8.94583e-05
8.80582e-05
0.000105014
0.00010718
8.58688e-05
8.49788e-05
8.90666e-05
9.01784e-05
8.55282e-05
8.92882e-05
8.99999e-05
0.000104448
0.000108511
8.5339e-05
9.05395e-05
8.95875e-05
0.000108107
0.000108684
0.000111835
9.15646e-05
9.03422e-05
9.57108e-05
9.78736e-05
0.000108319
0.000113136
9.05179e-05
9.11177e-05
9.56407e-05
9.55643e-05
9.12897e-05
9.71358e-05
9.54973e-05
0.000108978
0.000111548
9.09976e-05
9.51901e-05
9.56286e-05
0.000111682
0.000112383
0.000115562
9.65749e-05
9.89374e-05
0.000101076
0.000100411
0.000113618
0.000114575
9.7311e-05
9.77161e-05
0.000102282
0.000102327
9.67543e-05
9.99106e-05
0.000101425
0.000112687
0.000116287
9.70104e-05
0.00010229
0.000101724
0.000115816
0.000116545
0.000119944
0.000103084
0.000101856
0.000108047
0.000107791
0.000115329
0.000120398
0.000103776
0.000103147
0.000107377
0.000106717
0.000103211
0.00010841
0.000106943
0.000116708
0.000118881
0.000103362
0.000106505
0.000106657
0.0001192
0.000120498
0.000123037
0.000109216
0.00010913
0.000113076
0.000112764
0.000121174
0.000122926
0.000108416
0.000108373
0.000112565
0.000113629
0.00010803
0.000113561
0.00011401
0.000119809
0.000123978
0.000107744
0.000113733
0.000113985
0.000124193
0.000123743
0.000127081
0.000114239
0.000114271
0.00011762
0.000119044
0.000123568
0.000127726
0.000113957
0.000114958
0.000118234
0.000118299
0.000115773
0.000118618
0.000118037
0.000124674
0.000127027
0.000115788
0.000118111
0.000117903
0.000127112
0.000127983
0.000131605
0.000119419
0.000120854
0.000124271
0.000124404
0.000128686
0.000131483
0.000120355
0.000119975
0.000125528
0.00012441
0.000119479
0.000125779
0.000125185
0.000127717
0.000131061
0.000119285
0.000124333
0.000125051
0.000131654
0.000132014
0.000134382
0.000125054
0.000124724
0.000128422
0.000127778
0.000131724
0.000133747
0.000126069
0.000125106
0.000128665
0.000128437
0.000126016
0.000127884
0.000128078
0.000131567
0.000134294
0.000125962
0.000128261
0.000127951
0.000133833
0.000135621
0.000141162
0.000130782
0.000130294
0.0001384
0.000138249
0.000135011
0.000140874
0.00013103
0.000130843
0.000138604
0.000138245
0.000130225
0.000137748
0.000138382
0.000135519
0.000140922
0.000129962
0.000138016
0.000138159
0.00014089
0.000141483
0.00013895
0.000139375
0.000139253
0.000138546
0.000138426
0.000141247
0.000138968
0.000139458
0.000139062
0.000138378
0.000137943
0.000139582
0.000138153
0.000139003
0.000141244
0.000138755
0.000139511
0.000138287
0.000139174
0.000139439
0.000138508
0.000137468
0.000137284
0.00013716
0.000134852
0.000134722
0.000138549
0.000137502
0.00013699
0.000136613
0.000134312
0.000134151
0.000137591
0.000134305
0.000134539
0.000138323
0.000137303
0.000137821
0.000134378
0.000134787
0.000137208
0.000138907
0.000149654
0.000136902
0.000136757
0.000150428
0.000150397
0.000138927
0.000149661
0.000136141
0.00013638
0.000150205
0.000150442
0.000135543
0.000150194
0.000149633
0.000138782
0.000149706
0.000135731
0.000150217
0.000149655
0.000149199
0.000151741
0.000161011
0.000154734
0.000154724
0.000166275
0.000166297
0.00015176
0.000161082
0.000154609
0.000154842
0.000166258
0.00016647
0.000154166
0.000166388
0.000166206
0.00015182
0.000161152
0.000154158
0.000166397
0.000166176
0.000160992
0.0001626
0.000167772
0.000169373
0.000169402
0.000174818
0.000174869
0.00016268
0.000167878
0.000169358
0.000169556
0.000174801
0.00017497
0.000169403
0.000175011
0.000175018
0.000162744
0.000167905
0.000169382
0.00017502
0.000175013
0.000167948
0.000167768
0.000160399
0.000175857
0.000175911
0.000170926
0.000170885
0.000167869
0.000160406
0.00017584
0.000176004
0.000170854
0.000170806
0.000176075
0.000170996
0.000171195
0.000167886
0.000160368
0.000176072
0.000170994
0.000171266
0.000160605
0.000159356
0.000150371
0.00016678
0.000166718
0.000155941
0.000155844
0.000159355
0.00015032
0.000166696
0.000166636
0.000155841
0.000155779
0.000166973
0.000155867
0.000155956
0.000159319
0.00015031
0.000167044
0.000155895
0.000156014
0.000150408
0.000149411
0.0001397
0.000152385
0.00015229
0.000142308
0.000142241
0.00014936
0.000139668
0.00015229
0.000152235
0.000142241
0.000142225
0.000152367
0.000142234
0.00014225
0.000149352
0.000139679
0.000152415
0.00014226
0.000142272
0.00013968
0.000139039
0.000135696
0.000139881
0.000139826
0.000136011
0.000135973
0.000139013
0.000135692
0.000139825
0.000139821
0.000135968
0.000135982
0.000139825
0.000135965
0.000135962
0.000139022
0.000135705
0.000139841
0.000135982
0.000135969
0.000135683
0.000136458
0.000145793
0.000136083
0.000136064
0.00014878
0.000148779
0.000136457
0.000145795
0.000136056
0.000136083
0.000148773
0.000148792
0.000136053
0.000148784
0.000148783
0.000136472
0.000145803
0.000136052
0.00014879
0.000148783
0.000145798
0.00014794
0.000158948
0.000153495
0.000153494
0.000167662
0.000167663
0.000147942
0.000158952
0.000153491
0.000153503
0.000167666
0.000167661
0.000153501
0.000167674
0.00016767
0.000147948
0.000158949
0.000153503
0.000167676
0.000167675
0.000158952
0.000160919
0.000169492
0.000172066
0.000172068
0.000183257
0.000183257
0.000160923
0.000169496
0.000172073
0.000172063
0.000183268
0.000183248
0.000172073
0.000183275
0.000183263
0.000160919
0.000169488
0.000172079
0.000183272
0.000183272
0.000169493
0.000170719
0.000175533
0.000186194
0.000186194
0.000192649
0.000192648
0.000170723
0.000175538
0.000186206
0.000186184
0.000192663
0.000192638
0.0001862
0.000192672
0.000192657
0.000170715
0.000175529
0.000186211
0.000192669
0.00019267
0.000175536
0.000176097
0.00017834
0.000194122
0.00019412
0.000197103
0.000197099
0.000176102
0.000178346
0.000194137
0.000194111
0.000197118
0.000197092
0.00019413
0.00019713
0.000197112
0.000176094
0.000178337
0.000194145
0.000197126
0.000197128
0.000178344
0.000178537
0.000179573
0.000197754
0.000197751
0.000199071
0.000199068
0.000178543
0.00017958
0.000197769
0.000197743
0.000199086
0.000199059
0.000197763
0.000199101
0.000199079
0.000178534
0.00017957
0.000197779
0.000199095
0.000199096
0.000179577
0.000179592
0.000180055
0.000199349
0.000199347
0.000199834
0.000199832
0.000179599
0.000180064
0.000199366
0.000199338
0.000199851
0.000199822
0.000199358
0.000199866
0.000199843
0.000179589
0.000180052
0.000199375
0.000199858
0.00019986
0.00018006
0.000179974
0.000180184
0.000199902
0.0001999
0.000199947
0.000199944
0.000179983
0.000180192
0.000199918
0.000199889
0.000199964
0.000199934
0.00019991
0.000199978
0.000199956
0.000179971
0.000180181
0.000199928
0.000199971
0.000199974
0.000180189
0.000180065
0.000180044
0.000199931
0.000199928
0.000199896
0.000199894
0.000180071
0.000180051
0.000199947
0.000199918
0.000199913
0.000199884
0.000199941
0.000199928
0.000199906
0.000180061
0.000180042
0.000199958
0.000199922
0.000199924
0.00018005
0.000179943
0.000180223
0.000199916
0.000199914
0.000200007
0.000200005
0.000179952
0.000180232
0.000199933
0.000199904
0.000200024
0.000199994
0.000199925
0.000200039
0.000200015
0.000179941
0.000180219
0.000199943
0.000200031
0.000200032
0.000180226
0.000180117
0.000180148
0.000200013
0.000200011
0.000199956
0.000199953
0.000180125
0.000180153
0.00020003
0.0002
0.000199973
0.000199943
0.000200021
0.000199987
0.000199964
0.000180113
0.000180142
0.000200038
0.00019998
0.000199982
0.00018015
0.000180009
0.000180126
0.000199946
0.000199944
0.000199963
0.000199962
0.000180014
0.000180136
0.000199963
0.000199934
0.000199979
0.000199951
0.000199955
0.000199995
0.000199973
0.000180004
0.000180126
0.000199973
0.000199989
0.000199991
0.000180134
0.000180026
0.000180217
0.000199977
0.000199975
0.000199981
0.000199978
0.000180036
0.000180223
0.000199993
0.000199965
0.000199998
0.000199968
0.000199987
0.000200012
0.000199988
0.000180026
0.000180212
0.000200004
0.000200004
0.000200005
0.000180219
0.000180084
0.000180094
0.000199969
0.000199966
0.000199956
0.000199954
0.000180088
0.000180102
0.000199987
0.000199956
0.000199972
0.000199943
0.000199976
0.000199988
0.000199965
0.000180077
0.000180091
0.000199993
0.000199981
0.000199982
0.000180098
0.000179976
0.00018022
0.000199957
0.000199955
0.000199979
0.000199977
0.000179986
0.000180229
0.000199973
0.000199945
0.000199996
0.000199967
0.000199966
0.000200011
0.000199988
0.000179976
0.000180218
0.000199985
0.000200005
0.000200006
0.000180225
0.000180102
0.000180092
0.000199976
0.000199973
0.000199956
0.000199955
0.000180108
0.000180101
0.000199993
0.000199963
0.000199972
0.000199944
0.000199984
0.000199989
0.000199966
0.000180097
0.00018009
0.000200001
0.000199981
0.000199983
0.000180098
0.000179978
0.000180215
0.000199961
0.000199961
0.000199973
0.00019997
0.000179991
0.000180221
0.000199978
0.000199949
0.000199991
0.000199961
0.000199971
0.000200004
0.000199982
0.000179979
0.00018021
0.000199989
0.000199997
0.0002
0.000180218
0.000180091
0.000180101
0.000199966
0.000199964
0.000199963
0.000199964
0.000180092
0.000180116
0.000199983
0.000199954
0.000199979
0.000199951
0.000199975
0.000199997
0.000199973
0.000180083
0.000180101
0.000199994
0.000199989
0.000199991
0.000180107
0.000180001
0.000180194
0.000199967
0.000199968
0.000199966
0.000199964
0.000180024
0.000180185
0.000199984
0.000199956
0.000199983
0.000199954
0.000199977
0.000199998
0.000199975
0.000180007
0.000180179
0.000199993
0.00019999
0.000199992
0.000180191
0.000180055
0.000180148
0.000199965
0.000199964
0.000199965
0.000199965
0.000180044
0.000180178
0.000199982
0.000199953
0.000199981
0.000199953
0.000199975
0.000199998
0.000199975
0.000180038
0.000180162
0.000199992
0.000199991
0.000199992
0.000180166
0.000180056
0.00018012
0.000199966
0.000199965
0.000199965
0.000199964
0.000180081
0.000180117
0.000199982
0.000199954
0.000199981
0.000199953
0.000199975
0.000199998
0.000199974
0.000180067
0.000180106
0.000199993
0.000199991
0.000199992
0.000180116
0.000179986
0.000180207
0.000199966
0.000199966
0.000199965
0.000199964
0.000179992
0.000180207
0.000199981
0.000199954
0.000199982
0.000199953
0.000199975
0.000199998
0.000199975
0.000179981
0.000180192
0.000199993
0.000199991
0.000199992
0.000180206
0.000180074
0.000180161
0.000199966
0.000199964
0.000199966
0.000199966
0.000180064
0.000180184
0.000199982
0.000199954
0.000199981
0.000199954
0.000199975
0.000199999
0.000199976
0.000180049
0.000180179
0.000199992
0.000199992
0.000199993
0.000180179
0.000180069
0.000180104
0.000199967
0.000199966
0.000199964
0.000199964
0.000180087
0.000180117
0.000199982
0.000199955
0.00019998
0.000199954
0.000199977
0.000199999
0.000199976
0.000180079
0.000180112
0.000199994
0.000199992
0.000199993
0.000180118
0.000179995
0.00018015
0.000199966
0.000199966
0.000199963
0.000199962
0.000180018
0.00018014
0.000199982
0.000199956
0.000199979
0.000199951
0.000199977
0.000199996
0.000199974
0.000180022
0.000180118
0.000199995
0.000199988
0.000199991
0.000180124
0.00018001
0.000180203
0.000199964
0.000199964
0.000199965
0.000199963
0.000180004
0.000180196
0.000199981
0.000199954
0.000199981
0.000199952
0.000199978
0.000199998
0.000199976
0.000179987
0.000180175
0.000199994
0.00019999
0.000199993
0.000180192
0.000180082
0.000180152
0.000199966
0.000199964
0.000199965
0.000199964
0.000180052
0.000180204
0.000199982
0.000199953
0.000199981
0.000199952
0.000199975
0.000199998
0.000199976
0.000180033
0.000180195
0.000199992
0.00019999
0.000199993
0.000180181
0.000180064
0.000180108
0.000199968
0.000199965
0.000199963
0.000199963
0.000180095
0.000180152
0.000199985
0.000199954
0.000199979
0.000199952
0.000199979
0.000199996
0.000199973
0.000180083
0.000180145
0.000199996
0.000199988
0.00019999
0.000180128
0.000179993
0.000180153
0.000199967
0.000199967
0.000199965
0.000199961
0.000180067
0.000180109
0.000199983
0.000199956
0.000199982
0.00019995
0.000199978
0.000199995
0.000199972
0.00018006
0.000180098
0.000199995
0.000199986
0.000199988
0.000180109
0.000180016
0.000180185
0.00019997
0.000199967
0.000199962
0.000199961
0.000179992
0.000180193
0.000199986
0.000199957
0.000199979
0.00019995
0.000199977
0.000199997
0.000199974
0.000179989
0.000180162
0.000199994
0.000199987
0.000199991
0.000180191
0.000180042
0.000180178
0.000199968
0.000199967
0.000199964
0.000199961
0.000180052
0.000180179
0.000199985
0.000199956
0.000199981
0.000199951
0.00019998
0.000199995
0.000199973
0.000180023
0.000180178
0.000199996
0.000199988
0.00019999
0.000180179
0.000180081
0.000180121
0.000199974
0.000199972
0.000199962
0.00019996
0.000180083
0.000180126
0.000199992
0.000199962
0.000199979
0.00019995
0.000199984
0.000199995
0.000199973
0.000180076
0.00018012
0.000200001
0.000199985
0.000199988
0.000180116
0.000179995
0.000180209
0.000199976
0.000199974
0.000200016
0.000200014
0.000180006
0.000180198
0.000199993
0.000199964
0.000200034
0.000200006
0.000199987
0.000200049
0.000200026
0.00018
0.000180201
0.000200004
0.000200042
0.000200042
0.000180169
0.000180084
0.000181304
0.000199885
0.000199884
0.000202404
0.000202406
0.000180074
0.000181313
0.000199903
0.000199872
0.000202422
0.000202397
0.000199893
0.000202433
0.000202415
0.000180085
0.000181293
0.000199911
0.000202425
0.000202433
0.000181337
0.000182955
0.000200753
0.000200755
0.000182963
0.000200769
0.000200746
0.000214601
0.0002146
0.00021461
0.000200761
0.000182943
0.000200777
3.43396e-05
3.7387e-06
2.15933e-05
2.15211e-05
6.8541e-07
2.49942e-06
2.11766e-06
1.15605e-05
5.75165e-07
3.19213e-06
1.1416e-05
1.73654e-06
2.28061e-06
1.8988e-06
1.75833e-06
1.14755e-06
1.34717e-05
1.04347e-06
1.52597e-05
1.09373e-05
1.31958e-05
1.07257e-06
1.35624e-05
9.70265e-07
1.52878e-05
1.07325e-05
1.09378e-05
1.07442e-05
1.05131e-05
1.05191e-05
1.07732e-05
1.05298e-05
7.08387e-07
5.71042e-07
4.50566e-06
2.34282e-06
7.12783e-07
6.92736e-07
4.45681e-06
1.09878e-05
1.32078e-05
6.11163e-07
5.40222e-06
1.02551e-06
4.50715e-06
6.03781e-07
5.32575e-06
1.34326e-06
1.49542e-06
1.49652e-06
2.25638e-06
1.70593e-06
1.70854e-06
1.34053e-06
1.85618e-05
1.26514e-06
2.09101e-05
1.7198e-05
1.93691e-05
1.33368e-06
1.77027e-05
1.3123e-06
2.07518e-05
1.05698e-05
1.08209e-05
1.05779e-05
1.07318e-05
1.07442e-05