/*--------------------------------*- C++ -*----------------------------------*\
| =========                 |                                                 |
| \\      /  F ield         | OpenFOAM: The Open Source CFD Toolbox           |
|  \\    /   O peration     | Version:  v1906                                 |
|   \\  /    A nd           | Web:      www.OpenFOAM.com                      |
|    \\/     M anipulation  |                                                 |
\*---------------------------------------------------------------------------*/
FoamFile
{
    version     2.0;
    format      ascii;
    class       volScalarField;
    location    "250";
    object      p;
}
// * * * * * * * * * * * * * * * * * * * * * * * * * * * * * * * * * * * * * //

dimensions      [0 2 -2 0 0 0 0];


internalField   nonuniform List<scalar> 
171728
(
0.00353246
0.00353145
0.00353148
0.00353217
0.00349683
0.00349544
0.00349552
0.00349832
0.00345891
0.00345695
0.00345691
0.00345923
0.00341468
0.00341302
0.00341301
0.00341525
0.00336626
0.00336471
0.00336474
0.00336713
0.0033176
0.00331615
0.00331601
0.00331854
0.00326965
0.00326835
0.00326835
0.00327074
0.00322231
0.00322113
0.00322116
0.00322356
0.00317596
0.00317493
0.0031749
0.00317733
0.00313069
0.00312975
0.00312978
0.00313216
0.00308626
0.00308544
0.00308539
0.00308786
0.00304262
0.00304188
0.00304186
0.00304431
0.00299949
0.00299874
0.00299877
0.00300126
0.00295677
0.0029562
0.00295617
0.00295867
0.0029144
0.00291403
0.00291385
0.0029163
0.00287233
0.00287188
0.00287183
0.00287431
0.00283061
0.00283037
0.00283018
0.00283262
0.00278924
0.00278896
0.00278914
0.00279118
0.0027482
0.00274799
0.002748
0.00275012
0.00270754
0.00270738
0.0027069
0.00270939
0.0026672
0.00266697
0.00266708
0.00266905
0.00262714
0.00262685
0.00262682
0.0026289
0.00258749
0.00258797
0.00258721
0.00258935
0.00254783
0.00254739
0.0025478
0.00254945
0.00250865
0.00250885
0.00250858
0.00251058
0.00246974
0.00246981
0.0024698
0.00247191
0.00243078
0.00243076
0.00243087
0.00243217
0.00239237
0.00239237
0.00239238
0.00239474
0.00235397
0.00235405
0.00235408
0.00235616
0.00231584
0.00231612
0.00231594
0.002318
0.00227792
0.00227796
0.00227818
0.00228037
0.00223998
0.00224031
0.00224008
0.00224223
0.00220256
0.00220285
0.00220291
0.00220495
0.00216489
0.00216511
0.00216512
0.00216715
0.00212752
0.00212784
0.00212778
0.00212975
0.00209045
0.0020907
0.00209074
0.00209267
0.00205339
0.00205364
0.00205363
0.00205561
0.00201657
0.00201678
0.00201675
0.00201871
0.00197978
0.00197995
0.00197998
0.00198197
0.00194333
0.00194343
0.0019434
0.0019454
0.00190681
0.0019069
0.00190692
0.00190891
0.00187062
0.00187062
0.00187059
0.00187264
0.00183446
0.00183448
0.0018345
0.00183651
0.00179858
0.00179849
0.00179848
0.00180052
0.00176276
0.0017626
0.00176268
0.00176472
0.00172715
0.0017271
0.00172699
0.00172904
0.00169173
0.00169152
0.00169161
0.00169365
0.00165656
0.00165639
0.00165632
0.00165832
0.00162168
0.00162135
0.00162137
0.00162336
0.00158683
0.0015866
0.00158662
0.00158859
0.00155259
0.00155225
0.00155222
0.00155419
0.00151783
0.0015175
0.0015175
0.00151948
0.00148354
0.00148358
0.00148358
0.00148552
0.00145097
0.0014506
0.0014506
0.00145245
0.00141819
0.00141732
0.00141732
0.00141905
0.00138315
0.00138252
0.00138253
0.00138443
0.00134571
0.00134544
0.00134544
0.00134752
0.001307
0.00130763
0.00130763
0.00131
0.00126919
0.00126991
0.00126991
0.00127231
0.00123431
0.00123475
0.00123475
0.00123686
0.00120337
0.00120315
0.00120315
0.00120484
0.00117419
0.00117328
0.00117328
0.00117462
0.0011443
0.0011435
0.0011435
0.00114489
0.00111298
0.00111249
0.00111249
0.00111411
0.00107998
0.00107974
0.00107974
0.00108156
0.00104552
0.0010454
0.0010454
0.00104735
0.00101011
0.00101005
0.00101005
0.00101207
0.000974211
0.000974179
0.000974179
0.000976237
0.000938115
0.000938089
0.000938088
0.00094016
0.000901967
0.00090194
0.00090194
0.000904013
0.000865791
0.000865764
0.000865764
0.00086784
0.000829612
0.000829583
0.000829583
0.000831659
0.000793434
0.000793407
0.000793407
0.000795482
0.000757251
0.000757223
0.000757223
0.000759299
0.000721072
0.000721044
0.000721044
0.00072312
0.000684889
0.000684861
0.00068486
0.000686936
0.000648707
0.000648681
0.000648681
0.000650756
0.000612524
0.000612495
0.000612495
0.00061457
0.000576342
0.000576315
0.000576315
0.000578391
0.000540161
0.000540134
0.000540133
0.000542208
0.00050398
0.000503952
0.000503952
0.000506028
0.000467799
0.000467772
0.000467772
0.000469847
0.000431617
0.00043159
0.00043159
0.000433664
0.000395436
0.000395407
0.000395407
0.000397482
0.000359254
0.000359227
0.000359227
0.000361302
0.000323074
0.000323047
0.000323047
0.000325121
0.000286893
0.000286864
0.000286864
0.000288937
0.000250714
0.000250686
0.000250686
0.000252758
0.000214534
0.000214508
0.000214508
0.000216578
0.000178355
0.000178328
0.000178328
0.000180395
0.000142174
0.000142149
0.000142149
0.000144206
0.000105989
0.000105969
0.000105969
0.000108009
6.98069e-05
6.97821e-05
6.97809e-05
7.17882e-05
3.4399e-05
3.3828e-05
3.3825e-05
3.56789e-05
6.00755e-06
6.8181e-06
6.81735e-06
5.13028e-06
0.00353693
0.00353452
0.0035345
0.00353691
0.00353449
0.00353456
0.00354083
0.00354085
0.00354085
0.00354085
0.00353451
0.00353451
0.00353697
0.00353462
0.0035345
0.0035369
0.00353217
0.00350304
0.00353144
0.00353143
0.00350479
0.0035048
0.00353218
0.00350303
0.00353145
0.00353144
0.00350481
0.00350481
0.00353143
0.00350478
0.0035048
0.00353221
0.00350303
0.00353144
0.00350482
0.00350481
0.00350301
0.00349831
0.00346472
0.00349545
0.00349541
0.00346689
0.0034669
0.00349829
0.00346473
0.0034955
0.00349543
0.00346691
0.00346687
0.00349545
0.00346686
0.00346692
0.00349831
0.00346471
0.00349545
0.00346704
0.00346697
0.00346473
0.00345924
0.00342149
0.00345691
0.00345691
0.00342459
0.00342463
0.00345925
0.0034215
0.00345692
0.00345699
0.0034246
0.00342462
0.00345698
0.0034246
0.00342459
0.00345927
0.0034215
0.00345693
0.00342445
0.00342463
0.00342148
0.00341526
0.00337363
0.00341296
0.003413
0.00337697
0.003377
0.00341527
0.00337363
0.00341296
0.003413
0.00337695
0.00337701
0.003413
0.003377
0.003377
0.00341527
0.00337364
0.00341299
0.00337683
0.003377
0.00337363
0.00336713
0.00332496
0.00336473
0.0033647
0.00332823
0.00332823
0.00336713
0.00332496
0.00336474
0.00336473
0.00332823
0.00332822
0.00336475
0.00332823
0.00332822
0.00336714
0.00332496
0.00336474
0.00332808
0.00332822
0.00332495
0.00331855
0.00327705
0.00331615
0.00331615
0.00328025
0.00328026
0.00331856
0.00327705
0.00331615
0.00331616
0.00328026
0.00328026
0.00331613
0.00328027
0.00328025
0.00331855
0.00327706
0.00331613
0.00328024
0.00328025
0.00327704
0.00327075
0.00322975
0.00326838
0.00326836
0.00323285
0.00323287
0.00327073
0.00322974
0.00326837
0.00326839
0.00323286
0.00323287
0.00326837
0.00323286
0.00323286
0.00327076
0.00322975
0.00326837
0.00323286
0.00323285
0.00322975
0.00322356
0.00318336
0.00322116
0.00322114
0.00318634
0.00318635
0.00322354
0.00318337
0.00322116
0.00322114
0.00318634
0.00318636
0.00322114
0.00318634
0.00318636
0.00322356
0.00318339
0.00322115
0.00318633
0.00318636
0.00318337
0.00317733
0.00313806
0.00317492
0.00317492
0.00314094
0.00314097
0.00317733
0.00313807
0.0031749
0.0031749
0.00314093
0.00314097
0.00317492
0.00314095
0.00314098
0.00317734
0.00313809
0.00317492
0.00314093
0.00314097
0.00313807
0.00313216
0.00309363
0.00312974
0.00312974
0.00309642
0.00309641
0.00313217
0.00309364
0.00312974
0.00312975
0.00309642
0.00309643
0.00312975
0.0030964
0.00309645
0.00313218
0.00309366
0.00312973
0.00309649
0.00309643
0.00309365
0.00308785
0.00304998
0.00308544
0.00308543
0.00305273
0.00305268
0.00308787
0.00304996
0.00308542
0.00308543
0.00305275
0.00305269
0.00308542
0.00305265
0.0030527
0.00308787
0.00304998
0.00308543
0.00305268
0.00305272
0.00304998
0.00304429
0.00300685
0.00304191
0.00304186
0.00300962
0.00300954
0.0030443
0.00300681
0.0030419
0.00304186
0.00300961
0.00300952
0.00304193
0.00300956
0.00300958
0.00304429
0.00300688
0.00304189
0.00300954
0.00300957
0.00300687
0.00300122
0.00296416
0.00299881
0.00299876
0.00296688
0.00296691
0.0030012
0.00296419
0.0029988
0.00299879
0.00296686
0.00296673
0.00299884
0.00296691
0.00296682
0.00300124
0.00296417
0.00299884
0.00296678
0.00296682
0.00296419
0.00295861
0.00292185
0.00295625
0.00295621
0.00292463
0.00292441
0.00295861
0.00292188
0.00295625
0.0029562
0.00292459
0.00292437
0.00295628
0.0029244
0.00292453
0.00295862
0.00292173
0.0029563
0.00292439
0.00292452
0.0029218
0.00291634
0.00287982
0.00291398
0.00291404
0.00288257
0.00288243
0.00291642
0.00287967
0.00291402
0.00291393
0.00288254
0.00288226
0.00291393
0.00288239
0.00288247
0.00291625
0.00287962
0.00291391
0.00288233
0.00288243
0.00287977
0.00287434
0.00283801
0.00287194
0.00287186
0.0028408
0.00284069
0.0028742
0.00283803
0.00287204
0.00287199
0.00284073
0.00284047
0.00287197
0.00284066
0.0028405
0.00287419
0.00283784
0.00287199
0.00284067
0.00284059
0.00283794
0.00283257
0.00279644
0.0028301
0.00283034
0.00279931
0.00279914
0.00283267
0.00279656
0.00283027
0.00283023
0.0027992
0.00279919
0.00283031
0.00279913
0.00279906
0.00283248
0.00279646
0.00283036
0.00279936
0.00279917
0.00279646
0.0027911
0.00275547
0.0027887
0.00278891
0.00275842
0.00275813
0.00279126
0.00275554
0.00278881
0.00278888
0.00275844
0.00275832
0.00278884
0.00275814
0.00275806
0.00279117
0.00275526
0.00278903
0.00275793
0.00275795
0.00275538
0.00275018
0.00271481
0.002748
0.0027479
0.00271735
0.00271746
0.00275025
0.00271466
0.00274802
0.00274801
0.00271735
0.00271729
0.00274785
0.00271742
0.00271745
0.00275011
0.00271488
0.00274791
0.00271734
0.00271744
0.00271461
0.00270945
0.00267422
0.00270732
0.00270729
0.00267722
0.00267688
0.00270945
0.00267413
0.00270737
0.0027071
0.00267712
0.00267724
0.00270725
0.00267683
0.00267695
0.0027094
0.00267407
0.00270735
0.00267726
0.00267689
0.00267425
0.00266902
0.00263405
0.00266695
0.0026669
0.00263699
0.00263709
0.00266888
0.00263391
0.002667
0.002667
0.00263689
0.00263693
0.00266699
0.00263705
0.00263705
0.00266901
0.00263409
0.00266705
0.00263699
0.00263715
0.00263395
0.0026288
0.00259436
0.00262691
0.00262687
0.00259745
0.00259745
0.00262879
0.00259413
0.00262685
0.00262681
0.00259748
0.00259729
0.00262703
0.00259748
0.00259726
0.00262884
0.00259423
0.00262698
0.00259732
0.00259724
0.00259407
0.00258936
0.00255433
0.00258755
0.00258803
0.00255739
0.00255748
0.00258998
0.00255401
0.00258744
0.00258719
0.00255749
0.00255778
0.00258757
0.00255757
0.00255757
0.00258906
0.00255483
0.00258753
0.00255776
0.00255758
0.00255455
0.00254948
0.00251563
0.0025478
0.00254736
0.00251848
0.00251856
0.00254854
0.00251598
0.0025478
0.00254783
0.00251853
0.00251834
0.00254758
0.00251859
0.00251837
0.00254983
0.00251531
0.00254759
0.00251834
0.00251838
0.00251535
0.00251048
0.00247608
0.00250864
0.00250878
0.00247923
0.00247932
0.00251104
0.00247623
0.00250868
0.00250858
0.00247925
0.00247947
0.00250869
0.00247931
0.0024795
0.00251034
0.00247711
0.0025087
0.0024795
0.00247946
0.00247703
0.0024716
0.00243777
0.00246983
0.00246981
0.00244045
0.00244043
0.00247168
0.00243767
0.0024698
0.00246982
0.00244044
0.00244035
0.00246978
0.00244041
0.00244039
0.0024721
0.00243713
0.00246974
0.00244036
0.00244034
0.0024369
0.00243261
0.00239968
0.00243074
0.00243077
0.00240206
0.00240203
0.00243256
0.00239966
0.00243075
0.00243085
0.00240203
0.002402
0.00243078
0.00240204
0.0024021
0.00243232
0.00239989
0.00243084
0.00240201
0.00240208
0.00239996
0.00239466
0.00236124
0.00239237
0.00239238
0.00236371
0.00236364
0.0023946
0.00236136
0.00239232
0.00239239
0.00236373
0.00236357
0.00239233
0.00236365
0.00236366
0.00239477
0.0023609
0.00239231
0.00236356
0.00236369
0.00236081
0.00235646
0.00232301
0.00235412
0.00235403
0.00232539
0.00232558
0.00235652
0.00232276
0.00235415
0.00235407
0.0023254
0.00232552
0.00235415
0.0023256
0.00232543
0.00235598
0.00232329
0.00235416
0.00232553
0.00232541
0.00232312
0.00231785
0.00228537
0.00231595
0.00231612
0.00228765
0.00228751
0.00231797
0.0022852
0.00231595
0.00231594
0.00228763
0.00228766
0.00231589
0.00228749
0.00228769
0.00231842
0.0022851
0.00231585
0.00228765
0.00228769
0.00228524
0.00228059
0.00224705
0.00227811
0.00227797
0.00224951
0.00224959
0.0022802
0.00224676
0.00227813
0.00227818
0.00224955
0.00224956
0.00227817
0.00224962
0.00224952
0.0022802
0.00224724
0.00227818
0.00224956
0.00224955
0.00224725
0.00224202
0.00220996
0.00224018
0.0022403
0.00221226
0.00221229
0.00224199
0.00221003
0.00224019
0.00224008
0.0022122
0.00221224
0.00224009
0.00221226
0.00221225
0.00224226
0.00220976
0.00224009
0.00221224
0.00221222
0.00220977
0.00220512
0.00217199
0.00220288
0.00220287
0.0021745
0.00217449
0.00220511
0.00217197
0.00220285
0.0022029
0.00217455
0.00217459
0.00220291
0.00217451
0.00217457
0.00220492
0.00217217
0.00220289
0.0021746
0.00217457
0.00217212
0.00216706
0.00213469
0.0021651
0.0021651
0.00213711
0.00213712
0.00216706
0.00213468
0.00216513
0.00216512
0.0021371
0.00213706
0.00216511
0.00213712
0.00213706
0.00216721
0.00213458
0.00216512
0.00213705
0.00213706
0.0021346
0.00212982
0.00209751
0.00212783
0.00212783
0.0021
0.0021
0.00212981
0.00209754
0.00212783
0.00212779
0.00209999
0.00210001
0.00212779
0.00209999
0.0021
0.00212973
0.00209756
0.00212779
0.00210002
0.00210001
0.00209754
0.00209265
0.0020605
0.00209072
0.00209072
0.00206289
0.00206289
0.00209266
0.00206046
0.0020907
0.00209073
0.0020629
0.00206289
0.00209072
0.00206289
0.0020629
0.00209268
0.00206046
0.00209073
0.00206288
0.00206289
0.00206047
0.00205564
0.00202354
0.00205365
0.00205363
0.00202598
0.00202598
0.00205561
0.00202359
0.00205368
0.00205364
0.00202597
0.00202596
0.00205365
0.00202599
0.00202596
0.0020556
0.00202356
0.00205364
0.00202596
0.00202597
0.00202357
0.00201868
0.00198682
0.00201674
0.00201678
0.00198913
0.00198914
0.00201872
0.00198679
0.00201672
0.00201674
0.00198914
0.00198916
0.00201675
0.00198914
0.00198917
0.00201872
0.00198682
0.00201675
0.00198916
0.00198915
0.00198681
0.00198199
0.00195021
0.00197999
0.00197996
0.00195256
0.00195257
0.00198197
0.00195023
0.00198
0.00198
0.00195256
0.00195253
0.00197999
0.00195254
0.00195252
0.00198196
0.00195022
0.00197998
0.00195252
0.00195254
0.00195022
0.00194537
0.00191376
0.0019434
0.00194342
0.001916
0.00191597
0.00194539
0.00191372
0.00194341
0.00194339
0.001916
0.00191605
0.0019434
0.00191601
0.00191603
0.00194541
0.00191375
0.00194341
0.00191606
0.00191602
0.00191373
0.00190894
0.00187743
0.00190692
0.00190688
0.0018797
0.00187972
0.00190891
0.00187745
0.00190691
0.00190693
0.00187971
0.00187963
0.00190691
0.00187968
0.00187967
0.00190891
0.00187743
0.0019069
0.00187962
0.00187967
0.00187745
0.00187261
0.00184127
0.0018706
0.00187063
0.00184346
0.00184344
0.00187263
0.00184129
0.00187063
0.00187059
0.00184346
0.00184354
0.00187062
0.00184349
0.00184351
0.00187264
0.00184131
0.00187062
0.00184356
0.00184351
0.00184129
0.0018365
0.00180531
0.00183447
0.00183445
0.00180749
0.00180757
0.00183652
0.00180534
0.00183445
0.0018345
0.0018075
0.00180745
0.00183448
0.00180751
0.00180747
0.0018365
0.0018053
0.00183448
0.00180743
0.00180748
0.00180531
0.00180053
0.00176947
0.00179848
0.00179855
0.00177159
0.00177151
0.00180053
0.00176939
0.00179851
0.00179849
0.00177161
0.00177164
0.00179848
0.00177151
0.00177161
0.00180053
0.00176948
0.00179849
0.00177165
0.00177163
0.00176948
0.00176472
0.00173378
0.00176268
0.00176258
0.00173593
0.00173598
0.00176466
0.00173386
0.00176267
0.00176268
0.00173586
0.00173588
0.00176268
0.00173599
0.00173591
0.00176471
0.00173378
0.00176269
0.00173587
0.00173589
0.00173378
0.00172903
0.00169831
0.00172701
0.00172709
0.00170039
0.00170038
0.00172911
0.00169829
0.00172696
0.001727
0.00170039
0.00170043
0.00172701
0.00170037
0.00170045
0.00172904
0.00169834
0.00172699
0.00170045
0.00170046
0.00169838
0.00169361
0.00166311
0.00169157
0.00169154
0.00166517
0.00166516
0.00169358
0.0016631
0.00169158
0.00169159
0.00166518
0.00166511
0.00169163
0.00166515
0.0016651
0.00169362
0.00166305
0.00169165
0.00166511
0.0016651
0.00166302
0.00165841
0.00162803
0.00165638
0.00165637
0.00163011
0.00163004
0.0016584
0.001628
0.0016564
0.00165634
0.00163011
0.00163009
0.00165629
0.00163011
0.00163009
0.00165836
0.00162804
0.00165628
0.00163009
0.00163009
0.00162804
0.00162334
0.00159323
0.00162135
0.00162129
0.00159524
0.00159526
0.00162332
0.00159325
0.00162135
0.00162135
0.00159522
0.00159527
0.00162137
0.00159522
0.00159522
0.00162336
0.00159325
0.00162138
0.00159526
0.00159523
0.00159322
0.00158861
0.00155881
0.00158662
0.00158666
0.00156085
0.00156089
0.00158862
0.00155883
0.00158661
0.00158664
0.00156086
0.00156085
0.00158658
0.00156088
0.00156085
0.00158862
0.0015588
0.00158658
0.00156084
0.00156085
0.00155882
0.00155416
0.00152412
0.00155221
0.00155224
0.00152614
0.00152616
0.00155419
0.00152413
0.00155222
0.0015522
0.00152614
0.00152615
0.00155223
0.00152616
0.00152615
0.00155416
0.00152413
0.00155224
0.00152616
0.00152615
0.00152413
0.00151947
0.00149006
0.00151749
0.00151751
0.00149196
0.00149197
0.00151948
0.00149005
0.00151748
0.0015175
0.00149197
0.00149197
0.00151749
0.00149195
0.00149193
0.00151948
0.00149005
0.00151749
0.00149194
0.00149192
0.00149002
0.00148556
0.00145688
0.00148359
0.0014836
0.00145884
0.00145884
0.00148554
0.00145687
0.00148361
0.00148361
0.00145887
0.00145886
0.00148357
0.00145886
0.00145888
0.00148555
0.00145688
0.00148356
0.00145885
0.00145887
0.00145692
0.0014524
0.00142355
0.00145058
0.00145057
0.0014257
0.00142569
0.0014524
0.00142356
0.00145061
0.00145059
0.0014257
0.00142569
0.00145064
0.0014257
0.00142572
0.00145241
0.00142356
0.00145063
0.0014257
0.00142572
0.00142357
0.00141904
0.00138926
0.00141732
0.00141731
0.00139147
0.00139146
0.00141904
0.00138926
0.00141731
0.00141731
0.00139146
0.00139145
0.00141733
0.00139146
0.00139146
0.00141904
0.00138925
0.00141734
0.00139146
0.00139146
0.00138925
0.00138444
0.00135263
0.00138253
0.00138253
0.00135489
0.00135489
0.00138444
0.00135263
0.00138253
0.00138252
0.00135489
0.00135489
0.00138252
0.00135488
0.00135488
0.00138444
0.00135262
0.00138252
0.00135488
0.00135488
0.00135262
0.00134753
0.0013151
0.00134545
0.00134544
0.00131705
0.00131705
0.00134752
0.0013151
0.00134544
0.00134544
0.00131705
0.00131705
0.00134543
0.00131704
0.00131704
0.00134752
0.0013151
0.00134544
0.00131705
0.00131704
0.00131509
0.00131001
0.00127732
0.00130763
0.00130763
0.00127922
0.00127922
0.00131001
0.00127732
0.00130763
0.00130764
0.00127922
0.00127923
0.00130762
0.00127922
0.00127923
0.00131001
0.00127733
0.00130762
0.00127923
0.00127923
0.00127733
0.0012723
0.0012414
0.0012699
0.0012699
0.00124317
0.00124316
0.0012723
0.0012414
0.0012699
0.00126991
0.00124316
0.00124317
0.00126991
0.00124316
0.00124318
0.0012723
0.00124141
0.00126991
0.00124317
0.00124318
0.00124141
0.00123684
0.001209
0.00123474
0.00123474
0.00121081
0.0012108
0.00123685
0.001209
0.00123474
0.00123475
0.0012108
0.0012108
0.00123475
0.00121081
0.00121081
0.00123685
0.001209
0.00123475
0.00121081
0.00121081
0.00120901
0.00120483
0.00117861
0.00120315
0.00120315
0.00118064
0.00118064
0.00120483
0.00117861
0.00120315
0.00120315
0.00118064
0.00118064
0.00120315
0.00118064
0.00118064
0.00120483
0.00117861
0.00120315
0.00118064
0.00118064
0.00117861
0.00117462
0.00114896
0.00117328
0.00117328
0.00115103
0.00115103
0.00117462
0.00114896
0.00117328
0.00117328
0.00115103
0.00115103
0.00117328
0.00115103
0.00115103
0.00117462
0.00114896
0.00117328
0.00115103
0.00115103
0.00114896
0.00114489
0.00111839
0.0011435
0.0011435
0.0011204
0.0011204
0.00114489
0.00111839
0.0011435
0.0011435
0.0011204
0.0011204
0.0011435
0.0011204
0.0011204
0.00114489
0.00111839
0.0011435
0.0011204
0.0011204
0.00111839
0.00111411
0.00108609
0.0011125
0.00111249
0.0010881
0.0010881
0.00111411
0.00108609
0.0011125
0.0011125
0.0010881
0.0010881
0.00111249
0.0010881
0.0010881
0.00111411
0.00108609
0.00111249
0.0010881
0.0010881
0.00108609
0.00108156
0.00105207
0.00107974
0.00107974
0.0010541
0.0010541
0.00108156
0.00105207
0.00107974
0.00107974
0.0010541
0.0010541
0.00107974
0.0010541
0.0010541
0.00108156
0.00105207
0.00107974
0.0010541
0.0010541
0.00105207
0.00104735
0.0010169
0.0010454
0.0010454
0.00101895
0.00101895
0.00104735
0.0010169
0.0010454
0.0010454
0.00101895
0.00101895
0.0010454
0.00101895
0.00101895
0.00104735
0.0010169
0.0010454
0.00101895
0.00101895
0.0010169
0.00101207
0.000981117
0.00101005
0.00101005
0.000983175
0.000983175
0.00101207
0.000981117
0.00101005
0.00101005
0.000983175
0.000983175
0.00101005
0.000983175
0.000983175
0.00101207
0.000981117
0.00101005
0.000983175
0.000983175
0.000981117
0.000976237
0.000945061
0.000974179
0.000974179
0.000947122
0.000947122
0.000976237
0.000945062
0.000974179
0.000974179
0.000947122
0.000947122
0.000974179
0.000947122
0.000947122
0.000976237
0.000945061
0.000974179
0.000947122
0.000947122
0.000945061
0.000940161
0.000908916
0.000938089
0.000938089
0.000910979
0.000910979
0.00094016
0.000908916
0.000938089
0.000938089
0.000910979
0.000910978
0.000938089
0.000910979
0.000910979
0.00094016
0.000908916
0.000938088
0.000910978
0.000910978
0.000908916
0.000904013
0.000872746
0.00090194
0.00090194
0.00087481
0.00087481
0.000904013
0.000872746
0.00090194
0.00090194
0.00087481
0.00087481
0.00090194
0.00087481
0.00087481
0.000904013
0.000872746
0.00090194
0.000874811
0.000874811
0.000872747
0.000867839
0.000836564
0.000865764
0.000865764
0.000838627
0.000838627
0.000867839
0.000836564
0.000865764
0.000865764
0.000838627
0.000838627
0.000865764
0.000838627
0.000838627
0.00086784
0.000836564
0.000865765
0.000838627
0.000838627
0.000836564
0.000831658
0.000800388
0.000829583
0.000829583
0.000802452
0.000802452
0.000831658
0.000800389
0.000829583
0.000829583
0.000802452
0.000802452
0.000829584
0.000802452
0.000802452
0.000831658
0.000800388
0.000829583
0.000802452
0.000802452
0.000800388
0.000795482
0.000764204
0.000793407
0.000793407
0.000766268
0.000766268
0.000795482
0.000764205
0.000793407
0.000793407
0.000766268
0.000766268
0.000793407
0.000766268
0.000766268
0.000795482
0.000764204
0.000793407
0.000766268
0.000766268
0.000764204
0.000759298
0.000728025
0.000757223
0.000757223
0.000730088
0.000730088
0.000759298
0.000728026
0.000757223
0.000757223
0.000730088
0.000730088
0.000757224
0.000730089
0.000730089
0.000759298
0.000728025
0.000757223
0.000730089
0.000730089
0.000728026
0.00072312
0.000691843
0.000721044
0.000721044
0.000693908
0.000693908
0.00072312
0.000691844
0.000721043
0.000721044
0.000693908
0.000693908
0.000721044
0.000693908
0.000693908
0.00072312
0.000691843
0.000721044
0.000693908
0.000693908
0.000691843
0.000686936
0.000655661
0.000684861
0.00068486
0.000657724
0.000657725
0.000686936
0.000655662
0.00068486
0.00068486
0.000657724
0.000657724
0.000684861
0.000657725
0.000657725
0.000686936
0.000655661
0.00068486
0.000657725
0.000657725
0.000655661
0.000650756
0.000619477
0.000648681
0.000648681
0.000621541
0.000621541
0.000650756
0.000619477
0.000648681
0.000648681
0.000621541
0.000621541
0.000648681
0.000621541
0.000621541
0.000650756
0.000619477
0.000648681
0.000621541
0.000621541
0.000619477
0.00061457
0.000583297
0.000612495
0.000612495
0.000585361
0.000585361
0.00061457
0.000583298
0.000612495
0.000612495
0.000585361
0.000585361
0.000612495
0.000585361
0.000585361
0.00061457
0.000583297
0.000612495
0.000585361
0.000585361
0.000583297
0.000578391
0.000547113
0.000576315
0.000576315
0.000549178
0.000549178
0.000578391
0.000547114
0.000576315
0.000576315
0.000549178
0.000549178
0.000576315
0.000549178
0.000549178
0.000578391
0.000547113
0.000576315
0.000549178
0.000549178
0.000547113
0.000542207
0.000510934
0.000540133
0.000540133
0.000512997
0.000512997
0.000542207
0.000510934
0.000540133
0.000540133
0.000512997
0.000512997
0.000540134
0.000512997
0.000512997
0.000542208
0.000510934
0.000540133
0.000512997
0.000512997
0.000510934
0.000506028
0.000474753
0.000503952
0.000503952
0.000476817
0.000476817
0.000506027
0.000474754
0.000503952
0.000503952
0.000476816
0.000476816
0.000503952
0.000476817
0.000476817
0.000506028
0.000474753
0.000503952
0.000476817
0.000476817
0.000474753
0.000469847
0.00043857
0.000467772
0.000467772
0.000440634
0.000440634
0.000469847
0.00043857
0.000467771
0.000467771
0.000440635
0.000440634
0.000467772
0.000440634
0.000440634
0.000469847
0.00043857
0.000467772
0.000440634
0.000440634
0.00043857
0.000433664
0.00040239
0.00043159
0.00043159
0.000404453
0.000404453
0.000433663
0.00040239
0.00043159
0.00043159
0.000404453
0.000404452
0.00043159
0.000404453
0.000404453
0.000433664
0.000402389
0.00043159
0.000404453
0.000404453
0.000402389
0.000397483
0.000366209
0.000395407
0.000395407
0.000368272
0.000368272
0.000397482
0.000366209
0.000395408
0.000395407
0.000368271
0.000368272
0.000395408
0.000368272
0.000368272
0.000397482
0.000366209
0.000395407
0.000368272
0.000368272
0.000366209
0.000361302
0.000330026
0.000359227
0.000359227
0.000332089
0.000332089
0.000361302
0.000330027
0.000359227
0.000359227
0.000332089
0.00033209
0.000359227
0.000332089
0.00033209
0.000361302
0.000330027
0.000359227
0.000332089
0.000332089
0.000330027
0.00032512
0.000293845
0.000323046
0.000323047
0.000295908
0.000295908
0.00032512
0.000293845
0.000323046
0.000323047
0.000295908
0.000295908
0.000323047
0.000295908
0.000295908
0.000325121
0.000293845
0.000323047
0.000295907
0.000295907
0.000293845
0.000288937
0.000257668
0.000286865
0.000286865
0.000259729
0.000259729
0.000288937
0.000257667
0.000286865
0.000286865
0.000259729
0.000259728
0.000286864
0.00025973
0.000259731
0.000288938
0.000257666
0.000286864
0.00025973
0.00025973
0.000257668
0.000252758
0.000221488
0.000250686
0.000250685
0.000223549
0.00022355
0.000252757
0.000221489
0.000250686
0.000250685
0.000223548
0.000223549
0.000250687
0.000223549
0.000223549
0.000252757
0.000221488
0.000250686
0.000223549
0.000223549
0.000221489
0.000216578
0.000185309
0.000214507
0.000214507
0.000187369
0.000187369
0.000216577
0.00018531
0.000214507
0.000214507
0.000187369
0.000187369
0.000214509
0.000187368
0.000187368
0.000216577
0.00018531
0.000214508
0.000187368
0.000187368
0.00018531
0.000180394
0.00014913
0.000178328
0.000178329
0.000151188
0.000151188
0.000180395
0.000149131
0.000178328
0.000178329
0.000151188
0.000151188
0.000178328
0.000151188
0.000151189
0.000180395
0.000149131
0.000178328
0.000151188
0.000151188
0.000149131
0.000144206
0.000112955
0.00014215
0.000142149
0.000115006
0.000115006
0.000144206
0.000112955
0.000142149
0.00014215
0.000115006
0.000115005
0.000142149
0.000115006
0.000115006
0.000144206
0.000112954
0.000142149
0.000115006
0.000115006
0.000112954
0.000108009
7.67703e-05
0.000105969
0.000105969
7.88154e-05
7.88154e-05
0.000108009
7.67712e-05
0.000105969
0.000105968
7.88147e-05
7.88145e-05
0.000105969
7.8815e-05
7.88143e-05
0.000108009
7.67691e-05
0.000105969
7.88144e-05
7.88146e-05
7.67698e-05
7.17892e-05
4.06319e-05
6.97823e-05
6.97822e-05
4.26751e-05
4.26756e-05
7.17888e-05
4.06332e-05
6.97812e-05
6.97807e-05
4.26735e-05
4.26727e-05
6.97813e-05
4.26742e-05
4.26717e-05
7.17884e-05
4.06291e-05
6.97815e-05
4.26715e-05
4.26699e-05
4.06291e-05
3.56821e-05
8.33552e-06
3.38291e-05
3.38297e-05
1.13398e-05
1.13393e-05
3.56825e-05
8.33546e-06
3.38279e-05
3.38259e-05
1.1341e-05
1.13343e-05
3.38249e-05
1.13397e-05
1.13325e-05
3.56791e-05
8.33201e-06
3.38243e-05
1.13376e-05
1.13375e-05
8.33008e-06
5.1343e-06
6.81744e-06
6.81708e-06
5.13511e-06
6.81787e-06
6.81395e-06
6.00708e-06
6.0067e-06
6.00564e-06
6.81201e-06
5.13318e-06
6.81552e-06
0.00354403
0.0035466
0.00354542
0.00354544
0.00357244
0.0035466
0.00357597
0.00354683
0.00357252
0.00354672
0.0035469
0.00357607
0.00355757
0.0035792
0.00357927
0.00351634
0.00353017
0.00353402
0.00350879
0.00350686
0.00351212
0.00351658
0.00352994
0.00353384
0.00350898
0.00353246
0.00353245
0.00353245
0.00350585
0.0035059
0.00350583
0.00350588
0.00351614
0.00352784
0.00353302
0.00352367
0.00353516
0.00351326
0.00352393
0.00350692
0.00351215
0.00351616
0.003533
0.00352797
0.00352358
0.00353515
0.00352387
0.0035133
0.0035339
0.00353402
0.00352095
0.00351313
0.00351307
0.00348905
0.00350312
0.00350288
0.00348704
0.00350039
0.00348608
0.00348915
0.00350313
0.00350294
0.00348703
0.00349685
0.0034968
0.00349684
0.00346892
0.00346892
0.00346886
0.00346889
0.00348681
0.00350172
0.00349532
0.00348597
0.00350015
0.00348732
0.00348603
0.00350038
0.0034861
0.00348681
0.00349535
0.00350181
0.00348609
0.00350014
0.00348604
0.00348731
0.00350344
0.00350343
0.00348452
0.00348759
0.00348762
0.00344679
0.00346143
0.00346233
0.00344548
0.00346031
0.00344459
0.00344687
0.00346145
0.00346227
0.00344546
0.0034589
0.00345887
0.00345889
0.00342632
0.00342633
0.0034263
0.00342631
0.00344555
0.00346106
0.0034569
0.00344655
0.00345997
0.00344593
0.00344658
0.00346033
0.00344462
0.00344553
0.0034569
0.00346102
0.00344668
0.00345999
0.00344658
0.00344613
0.00346156
0.00346165
0.0034439
0.00344591
0.00344582
0.00340027
0.00341682
0.00341834
0.00339885
0.00341614
0.00339835
0.00340037
0.00341684
0.00341827
0.00339883
0.00341469
0.00341464
0.00341467
0.0033785
0.0033785
0.00337849
0.0033785
0.00339948
0.0034167
0.00341299
0.00340117
0.00341609
0.00339954
0.00340113
0.00341607
0.00339838
0.00339948
0.00341294
0.00341686
0.00340134
0.00341606
0.00340115
0.00339937
0.00341673
0.00341688
0.0033979
0.00339925
0.00339911
0.00335116
0.00336831
0.00336964
0.00334996
0.00336793
0.00334964
0.00335112
0.0033683
0.00336969
0.00334997
0.00336626
0.00336625
0.00336625
0.00332969
0.00332969
0.00332968
0.00332968
0.00335076
0.00336832
0.00336474
0.00335255
0.00336797
0.00335067
0.00335255
0.00336791
0.00334958
0.00335068
0.00336474
0.0033687
0.0033526
0.00336798
0.00335252
0.00335069
0.00336835
0.00336839
0.00334922
0.00335002
0.00335006
0.00330236
0.00331949
0.00332042
0.00330143
0.00331922
0.00330118
0.00330237
0.00331946
0.00332045
0.00330146
0.00331761
0.00331758
0.00331759
0.00328159
0.00328159
0.00328158
0.00328158
0.00330223
0.00331952
0.0033162
0.00330414
0.00331927
0.00330209
0.00330422
0.0033192
0.00330121
0.00330222
0.00331618