/*--------------------------------*- C++ -*----------------------------------*\
| =========                 |                                                 |
| \\      /  F ield         | OpenFOAM: The Open Source CFD Toolbox           |
|  \\    /   O peration     | Version:  v1906                                 |
|   \\  /    A nd           | Web:      www.OpenFOAM.com                      |
|    \\/     M anipulation  |                                                 |
\*---------------------------------------------------------------------------*/
FoamFile
{
    version     2.0;
    format      ascii;
    class       volScalarField;
    location    "275";
    object      epsilon;
}
// * * * * * * * * * * * * * * * * * * * * * * * * * * * * * * * * * * * * * //

dimensions      [0 2 -3 0 0 0 0];


internalField   nonuniform List<scalar> 
171728
(
4.86614e-09
4.86435e-09
5.07518e-09
5.04217e-09
4.83559e-09
4.40193e-09
5.11575e-09
4.54891e-09
4.81816e-09
3.99525e-09
5.18844e-09
4.1132e-09
4.80754e-09
3.64832e-09
5.23259e-09
3.74131e-09
4.80616e-09
3.3376e-09
5.10937e-09
3.42601e-09
4.81199e-09
3.08348e-09
4.64315e-09
3.15933e-09
4.82533e-09
2.88335e-09
4.0075e-09
2.93323e-09
4.84285e-09
2.72956e-09
3.48329e-09
2.75325e-09
4.87017e-09
2.62035e-09
3.08218e-09
2.61092e-09
4.90299e-09
2.55507e-09
2.84693e-09
2.5041e-09
4.94226e-09
2.52981e-09
2.71203e-09
2.43232e-09
4.98883e-09
2.54761e-09
2.61256e-09
2.39479e-09
5.04079e-09
2.61578e-09
2.6098e-09
2.39917e-09
5.10046e-09
2.74222e-09
2.68853e-09
2.4568e-09
5.16438e-09
2.94901e-09
2.87179e-09
2.59434e-09
5.23607e-09
3.27152e-09
3.18622e-09
2.85125e-09
5.31354e-09
3.78228e-09
3.67573e-09
3.31078e-09
5.40017e-09
4.56513e-09
4.47017e-09
4.09882e-09
5.49633e-09
5.64613e-09
5.71916e-09
5.51019e-09
5.60642e-09
7.53012e-09
7.71653e-09
7.76951e-09
5.72953e-09
9.65773e-09
1.0622e-08
1.18157e-08
5.87214e-09
1.38674e-08
1.49943e-08
2.03451e-08
6.04935e-09
1.85304e-08
2.11522e-08
2.97e-08
6.25074e-09
2.51833e-08
2.66478e-08
4.88344e-08
6.52465e-09
3.417e-08
3.83548e-08
7.25766e-08
6.86068e-09
4.52588e-08
4.5448e-08
1.20829e-07
7.32152e-09
6.08967e-08
6.35455e-08
1.52746e-07
7.86348e-09
7.45479e-08
8.12879e-08
2.38488e-07
8.63825e-09
1.04381e-07
9.54085e-08
2.86558e-07
9.55948e-09
1.2687e-07
1.2154e-07
3.92244e-07
1.09122e-08
1.41263e-07
1.43578e-07
4.24446e-07
1.23987e-08
1.7708e-07
1.81923e-07
5.4952e-07
1.45022e-08
2.08964e-07
2.05996e-07
5.96973e-07
1.67776e-08
2.4489e-07
2.47769e-07
6.67531e-07
2.04123e-08
2.82987e-07
2.82243e-07
7.23637e-07
2.38889e-08
3.24835e-07
3.22349e-07
7.72117e-07
2.97017e-08
3.79082e-07
3.74621e-07
8.22051e-07
3.47561e-08
4.03587e-07
4.16441e-07
8.53658e-07
4.13459e-08
4.63983e-07
4.55726e-07
8.96127e-07
5.1683e-08
5.16773e-07
5.20745e-07
9.40201e-07
5.86627e-08
5.56482e-07
5.54642e-07
9.619e-07
7.14196e-08
6.08803e-07
6.08226e-07
9.96692e-07
8.3292e-08
6.55068e-07
6.57347e-07
1.02717e-06
1.01136e-07
7.06033e-07
7.02952e-07
1.05607e-06
1.15082e-07
7.50921e-07
7.52199e-07
1.08426e-06
1.36589e-07
7.94168e-07
7.90685e-07
1.11192e-06
1.56219e-07
8.35379e-07
8.39855e-07
1.14068e-06
1.8033e-07
8.75238e-07
8.6926e-07
1.16306e-06
2.03966e-07
9.07669e-07
9.12483e-07
1.19022e-06
2.2953e-07
9.48445e-07
9.42059e-07
1.21273e-06
2.55999e-07
9.70186e-07
9.77912e-07
1.23507e-06
2.86291e-07
1.00109e-06
1.00134e-06
1.25566e-06
3.14598e-07
1.02935e-06
1.02969e-06
1.27442e-06
3.42423e-07
1.05031e-06
1.05198e-06
1.29368e-06
3.73818e-07
1.07589e-06
1.07311e-06
1.30528e-06
4.00461e-07
1.08603e-06
1.08552e-06
1.31548e-06
4.29837e-07
1.1079e-06
1.10953e-06
1.33407e-06
4.60242e-07
1.11868e-06
1.1191e-06
1.34934e-06
4.66166e-07
1.0996e-06
1.0994e-06
1.31995e-06
4.72825e-07
1.0939e-06
1.0936e-06
1.30657e-06
5.10472e-07
1.13519e-06
1.13486e-06
1.35548e-06
5.66497e-07
1.1888e-06
1.1886e-06
1.42512e-06
5.91354e-07
1.20863e-06
1.2085e-06
1.45219e-06
5.89736e-07
1.19759e-06
1.19757e-06
1.436e-06
5.5883e-07
1.14635e-06
1.14643e-06
1.36847e-06
5.19905e-07
1.08314e-06
1.08322e-06
1.28312e-06
5.04547e-07
1.05528e-06
1.05534e-06
1.24625e-06
5.25502e-07
1.07311e-06
1.07317e-06
1.27505e-06
5.77589e-07
1.11225e-06
1.11231e-06
1.32831e-06
6.14344e-07
1.13995e-06
1.14002e-06
1.36985e-06
6.318e-07
1.15531e-06
1.15539e-06
1.39498e-06
6.38123e-07
1.16225e-06
1.16232e-06
1.40801e-06
6.40206e-07
1.16509e-06
1.16516e-06
1.41397e-06
6.40757e-07
1.16599e-06
1.16606e-06
1.41628e-06
6.40707e-07
1.16608e-06
1.16616e-06
1.41682e-06
6.40627e-07
1.16605e-06
1.16612e-06
1.41677e-06
6.40691e-07
1.16619e-06
1.16627e-06
1.41719e-06
6.40644e-07
1.16611e-06
1.16618e-06
1.41703e-06
6.40644e-07
1.16612e-06
1.16619e-06
1.41697e-06
6.40654e-07
1.16615e-06
1.16623e-06
1.41716e-06
6.40636e-07
1.1661e-06
1.16618e-06
1.41689e-06
6.40643e-07
1.16613e-06
1.16621e-06
1.4171e-06
6.40635e-07
1.16611e-06
1.16619e-06
1.41695e-06
6.40636e-07
1.16613e-06
1.16621e-06
1.41709e-06
6.40631e-07
1.16611e-06
1.16619e-06
1.41694e-06
6.4063e-07
1.16613e-06
1.1662e-06
1.41708e-06
6.40629e-07
1.16612e-06
1.1662e-06
1.41691e-06
6.4063e-07
1.16613e-06
1.16621e-06
1.41709e-06
6.40631e-07
1.16613e-06
1.16621e-06
1.41693e-06
6.40634e-07
1.16614e-06
1.16622e-06
1.41699e-06
6.40638e-07
1.16616e-06
1.16624e-06
1.41707e-06
6.40646e-07
1.16619e-06
1.16626e-06
1.41695e-06
6.40646e-07
1.16622e-06
1.1663e-06
1.41696e-06
6.40392e-07
1.16592e-06
1.16599e-06
1.41668e-06
6.21211e-07
1.10829e-06
1.10828e-06
1.37453e-06
5.07385e-09
4.36514e-09
4.23621e-09
4.81766e-09
4.29528e-09
4.26027e-09
4.87584e-09
4.88078e-09
4.96058e-09
4.83906e-09
4.20342e-09
3.82248e-09
4.9393e-09
4.16454e-09
4.32757e-09
5.06385e-09
5.04681e-09
4.59179e-09
4.74679e-09
4.61671e-09
4.44018e-09
4.33019e-09
4.7898e-09
4.39001e-09
4.68356e-09
4.71202e-09
4.38221e-09
4.39755e-09
3.70276e-09
4.51489e-09
3.5702e-09
4.90495e-09
4.49446e-09
4.72061e-09
5.1064e-09
4.40843e-09
4.58016e-09
4.55681e-09
4.15172e-09
4.3367e-09
4.23394e-09
4.04915e-09
3.96532e-09
4.35676e-09
3.99781e-09
4.28083e-09
4.29334e-09
3.99925e-09
4.00544e-09
3.51816e-09
4.0904e-09
3.37325e-09
4.4248e-09
4.11321e-09
4.30246e-09
5.16039e-09
4.00927e-09
4.14073e-09
4.12161e-09
3.77455e-09
3.96001e-09
3.88176e-09
3.71051e-09
3.64464e-09
3.96918e-09
3.66083e-09
3.91303e-09
3.91681e-09
3.67077e-09
3.66949e-09
3.32959e-09
3.73175e-09
3.20095e-09
4.0563e-09
3.82885e-09
3.92024e-09
5.23181e-09
3.67343e-09
3.76476e-09
3.74823e-09
3.44917e-09
3.63256e-09
3.57085e-09
3.41646e-09
3.36386e-09
3.63606e-09
3.36414e-09
3.59493e-09
3.59302e-09
3.38405e-09
3.38068e-09
3.1588e-09
3.41058e-09
3.03627e-09
3.78207e-09
3.58802e-09
3.59685e-09
5.18553e-09
3.3815e-09
3.44617e-09
3.42676e-09
3.17488e-09
3.34953e-09
3.29998e-09
3.1681e-09
3.12612e-09
3.34252e-09
3.10613e-09
3.31885e-09
3.31566e-09
3.14051e-09
3.13802e-09
2.99661e-09
3.14201e-09
2.88985e-09
3.54092e-09
3.29968e-09
3.31462e-09
4.78751e-09
3.13089e-09
3.17594e-09
3.15696e-09
2.94847e-09
3.11406e-09
3.07391e-09
2.96902e-09
2.9337e-09
3.08871e-09
2.89129e-09
3.08771e-09
3.08391e-09
2.94271e-09
2.93971e-09
2.85866e-09
2.92864e-09
2.77718e-09
3.27101e-09
3.05592e-09
3.07515e-09
4.16088e-09
2.92573e-09
2.94593e-09
2.93472e-09
2.76155e-09
2.9264e-09
2.89296e-09
2.8123e-09
2.78453e-09
2.87799e-09
2.71206e-09
2.90144e-09
2.89644e-09
2.79342e-09
2.78403e-09
2.7549e-09
2.76335e-09
2.69637e-09
3.03922e-09
2.85309e-09
2.88145e-09
3.60219e-09
2.76665e-09
2.76195e-09
2.75186e-09
2.60965e-09
2.77982e-09
2.75455e-09
2.69691e-09
2.67762e-09
2.70266e-09
2.56778e-09
2.76018e-09
2.75184e-09
2.67716e-09
2.66983e-09
2.68018e-09
2.64294e-09
2.64242e-09
2.83962e-09
2.66883e-09
2.73456e-09
3.1685e-09
2.65303e-09
2.61596e-09
2.60391e-09
2.48873e-09
2.67454e-09
2.65805e-09
2.62139e-09
2.61006e-09
2.5627e-09
2.45768e-09
2.65366e-09
2.6493e-09
2.60121e-09
2.59876e-09
2.63458e-09
2.56648e-09
2.61964e-09
2.6593e-09
2.52365e-09
2.63286e-09
2.88741e-09
2.58536e-09
2.50436e-09
2.48725e-09
2.39919e-09
2.60857e-09
2.59913e-09
2.58503e-09
2.57769e-09
2.45707e-09
2.38124e-09
2.58773e-09
2.58624e-09
2.562e-09
2.56311e-09
2.61633e-09
2.53127e-09
2.61734e-09
2.52053e-09
2.41616e-09
2.57384e-09
2.74395e-09
2.55116e-09
2.4289e-09
2.40171e-09
2.34355e-09
2.58046e-09
2.57479e-09
2.58637e-09
2.58235e-09
2.3844e-09
2.33786e-09
2.55628e-09
2.56193e-09
2.5586e-09
2.57093e-09
2.62193e-09
2.53969e-09
2.64905e-09
2.41744e-09
2.35328e-09
2.54957e-09
2.6312e-09
2.5587e-09
2.38519e-09
2.35245e-09
2.32928e-09
2.59273e-09
2.58933e-09
2.63533e-09
2.63302e-09
2.34756e-09
2.33344e-09
2.56454e-09
2.57917e-09
2.60382e-09
2.62334e-09
2.66212e-09
2.59362e-09
2.71852e-09
2.36074e-09
2.33073e-09
2.56638e-09
2.60529e-09
2.61023e-09
2.37984e-09
2.34777e-09
2.36934e-09
2.65504e-09
2.65455e-09
2.74022e-09
2.74029e-09
2.35339e-09
2.37898e-09
2.62536e-09
2.6455e-09
2.70755e-09
2.73318e-09
2.74453e-09
2.70394e-09
2.84271e-09
2.34869e-09
2.36343e-09
2.63161e-09
2.65866e-09
2.71588e-09
2.4236e-09
2.40172e-09
2.47999e-09
2.77718e-09
2.77889e-09
2.92452e-09
2.92486e-09
2.4135e-09
2.49244e-09
2.74485e-09
2.77187e-09
2.88967e-09
2.92077e-09
2.884e-09
2.88887e-09
3.03352e-09
2.39541e-09
2.47329e-09
2.75396e-09
2.81685e-09
2.89992e-09
2.53759e-09
2.54153e-09
2.69942e-09
2.98555e-09
2.98446e-09
3.21489e-09
3.21793e-09
2.55057e-09
2.71955e-09
2.9528e-09
2.98204e-09
3.18186e-09
3.21415e-09
3.09632e-09
3.1782e-09
3.32837e-09
2.52871e-09
2.68793e-09
2.96075e-09
3.09169e-09
3.18922e-09
2.75816e-09
2.79772e-09
3.10086e-09
3.30792e-09
3.31524e-09
3.66828e-09
3.67339e-09
2.81972e-09
3.11105e-09
3.27277e-09
3.30676e-09
3.64305e-09
3.67245e-09
3.4208e-09
3.6356e-09
3.79298e-09
2.77844e-09
3.07316e-09
3.2824e-09
3.52916e-09
3.63795e-09
3.15388e-09
3.24879e-09
3.82357e-09
3.80441e-09
3.82642e-09
4.37877e-09
4.35894e-09
3.28122e-09
3.77665e-09
3.77989e-09
3.82276e-09
4.33588e-09
4.36367e-09
3.93908e-09
4.31025e-09
4.48642e-09
3.22878e-09
3.72895e-09
3.78477e-09
4.22254e-09
4.33687e-09
3.84261e-09
4.09077e-09
4.94117e-09
4.59918e-09
4.61771e-09
5.41229e-09
5.41646e-09
4.08184e-09
4.98733e-09
4.5521e-09
4.61467e-09
5.32619e-09
5.41276e-09
4.70378e-09
5.34441e-09
5.55897e-09
4.0251e-09
4.9356e-09
4.5527e-09
5.36929e-09
5.39676e-09
5.0402e-09
5.35278e-09
7.06351e-09
5.7349e-09
5.72345e-09
6.97166e-09
7.20812e-09
5.3509e-09
7.73432e-09
5.65015e-09
5.75961e-09
6.84248e-09
7.01498e-09
5.8954e-09
7.12928e-09
7.08795e-09
5.35017e-09
7.07888e-09
5.73705e-09
7.14274e-09
6.89575e-09
7.00263e-09
7.68837e-09
1.10497e-08
7.40947e-09
7.61136e-09
9.39316e-09
8.86442e-09
8.42964e-09
9.33064e-09
7.2683e-09
7.53453e-09
9.23189e-09
9.28864e-09
7.63239e-09
8.76584e-09
9.45004e-09
7.85758e-09
1.073e-08
7.41744e-09
9.83331e-09
9.22045e-09
1.09014e-08
1.23858e-08
1.62065e-08
1.00753e-08
9.77715e-09
1.24646e-08
1.32258e-08
1.05865e-08
2.05983e-08
9.90674e-09
1.00431e-08
1.23729e-08
1.26588e-08
1.00623e-08
1.31354e-08
1.29567e-08
1.19585e-08
1.72668e-08
9.81221e-09
1.39818e-08
1.2655e-08
1.77045e-08
1.8147e-08
2.70001e-08
1.34404e-08
1.39689e-08
1.70495e-08
1.70727e-08
2.2028e-08
2.6415e-08
1.33647e-08
1.38709e-08
1.65212e-08
1.70688e-08
1.39995e-08
1.68892e-08
1.72356e-08
1.93266e-08
2.84285e-08
1.36499e-08
1.89857e-08
1.70051e-08
2.6283e-08
3.06668e-08
4.60767e-08
1.88374e-08
1.88785e-08
2.34915e-08
2.33861e-08
3.02604e-08
4.5267e-08
1.85237e-08
1.85116e-08
2.34262e-08
2.33068e-08
1.89941e-08
2.35316e-08
2.3875e-08
3.07004e-08
4.53681e-08
1.85823e-08
2.49608e-08
2.35706e-08
4.55589e-08
4.84571e-08
7.04783e-08
2.4674e-08
2.51195e-08
3.27806e-08
3.15383e-08
4.8726e-08
6.84753e-08
2.45014e-08
2.45907e-08
3.23479e-08
3.30724e-08
2.56822e-08
3.12464e-08
3.13853e-08
4.85746e-08
7.5356e-08
2.52881e-08
3.61417e-08
3.09562e-08
6.73339e-08
8.26872e-08
9.98991e-08
3.57247e-08
3.38369e-08
4.07759e-08
4.32486e-08
7.4975e-08
1.08593e-07
3.51181e-08
3.63181e-08
4.04742e-08
4.14312e-08
3.40275e-08
4.29e-08
4.44726e-08
8.80515e-08
1.02574e-07
3.3671e-08
4.29642e-08
4.33036e-08
1.11743e-07
1.04387e-07
1.69717e-07
4.35124e-08
4.61426e-08
5.9222e-08
5.56607e-08
1.15818e-07
1.45037e-07
4.3509e-08
4.33365e-08
5.79659e-08
5.5529e-08
4.66746e-08
5.49723e-08
5.50853e-08
1.04517e-07
1.49156e-07
4.56674e-08
5.85108e-08
5.4083e-08
1.41782e-07
1.85168e-07
2.08171e-07
6.30148e-08
6.14151e-08
7.01962e-08
7.35059e-08
1.59225e-07
2.2385e-07
6.22348e-08
6.07066e-08
7.08637e-08
7.3721e-08
6.0837e-08
7.27715e-08
7.47841e-08
1.7085e-07
2.28236e-07
5.96146e-08
7.74903e-08
7.48314e-08
2.30077e-07
2.15262e-07
2.91535e-07
7.43169e-08
7.50367e-08
9.43919e-08
9.23129e-08
2.27799e-07
2.65637e-07
7.444e-08
7.77586e-08
9.31238e-08
9.02661e-08
7.71878e-08
9.2902e-08
9.21685e-08
2.36635e-07
2.77102e-07
7.73459e-08
9.11576e-08
8.98251e-08
2.67016e-07
3.13297e-07
3.50575e-07
9.98282e-08
1.04463e-07
1.11344e-07
1.27294e-07
3.03833e-07
4.29386e-07
9.84437e-08
9.54427e-08
1.10277e-07
1.15512e-07
1.00686e-07
1.24944e-07
1.17116e-07
2.91925e-07
3.61835e-07
9.78504e-08
1.14695e-07
1.17136e-07
3.85646e-07
3.62159e-07
4.53519e-07
1.1758e-07
1.28784e-07
1.43845e-07
1.36085e-07
4.3271e-07
4.2055e-07
1.1689e-07
1.21746e-07
1.43675e-07
1.37079e-07
1.19555e-07
1.35859e-07
1.3211e-07
3.81635e-07
4.34805e-07
1.20173e-07
1.37388e-07
1.32846e-07
4.08459e-07
4.71714e-07
5.06524e-07
1.49808e-07
1.40702e-07
1.67286e-07
1.66498e-07
4.3413e-07
5.10995e-07
1.49621e-07
1.441e-07
1.65001e-07
1.73666e-07
1.40741e-07
1.66635e-07
1.75414e-07
4.48166e-07
5.22835e-07
1.41423e-07
1.72771e-07
1.74974e-07
5.31707e-07
5.19722e-07
5.95867e-07
1.76264e-07
1.78449e-07
2.02689e-07
2.04092e-07
5.28989e-07
5.9472e-07
1.73022e-07
1.81972e-07
2.01546e-07
1.98884e-07
1.84153e-07
2.02714e-07
2.00789e-07
5.41886e-07
5.85267e-07
1.83057e-07
1.99392e-07
1.99401e-07
5.86349e-07
6.10826e-07
6.46858e-07
2.10967e-07
2.09377e-07
2.33064e-07
2.32815e-07
6.06727e-07
6.48062e-07
2.11141e-07
2.05883e-07
2.35248e-07
2.38826e-07
2.07419e-07
2.33415e-07
2.37524e-07
5.96468e-07
6.52843e-07
2.06596e-07
2.3781e-07
2.37148e-07
6.48345e-07
6.61826e-07
7.0845e-07
2.41117e-07
2.44869e-07
2.7648e-07
2.77603e-07
6.6438e-07
7.05222e-07
2.4225e-07
2.48767e-07
2.73486e-07
2.72797e-07
2.46427e-07
2.75921e-07
2.72918e-07
6.7107e-07
7.11168e-07
2.45662e-07
2.71595e-07
2.73498e-07
7.12507e-07
7.19761e-07
7.57445e-07
2.88172e-07
2.84866e-07
3.12981e-07
3.10374e-07
7.17049e-07
7.60013e-07
2.85984e-07
2.83554e-07
3.13338e-07
3.14796e-07
2.85163e-07
3.09818e-07
3.1676e-07
7.21474e-07
7.53668e-07
2.86207e-07
3.14081e-07
3.17131e-07
7.59644e-07
7.70476e-07
8.11374e-07
3.21381e-07
3.24683e-07
3.61742e-07
3.71057e-07
7.76952e-07
8.16042e-07
3.21554e-07
3.22887e-07
3.59987e-07
3.5865e-07
3.24502e-07
3.70199e-07
3.57634e-07
7.6721e-07
8.15088e-07
3.24593e-07
3.58382e-07
3.56579e-07
8.10553e-07
8.22335e-07
8.44107e-07
3.76981e-07
3.80506e-07
4.05957e-07
3.9818e-07
8.23359e-07
8.3474e-07
3.7524e-07
3.74892e-07
4.05343e-07
4.10118e-07
3.73089e-07
3.96374e-07
4.08291e-07
8.27017e-07
8.4648e-07
3.71869e-07
4.09578e-07
4.07821e-07
8.45814e-07
8.52532e-07
8.86911e-07
4.12873e-07
4.0518e-07
4.45457e-07
4.44644e-07
8.44059e-07
8.89833e-07
4.12202e-07
4.16999e-07
4.43471e-07
4.42628e-07
4.15385e-07
4.44028e-07
4.42104e-07
8.53593e-07
8.81469e-07
4.15091e-07
4.41865e-07
4.42115e-07
8.82417e-07
9.00491e-07
9.30039e-07
4.62098e-07
4.64299e-07
5.0745e-07
5.07224e-07
9.04359e-07
9.3028e-07
4.60213e-07
4.56689e-07
5.07952e-07
5.08369e-07
4.5681e-07
5.07878e-07
5.07379e-07
8.95479e-07
9.32938e-07
4.56851e-07
5.07785e-07
5.07382e-07
9.32244e-07
9.37059e-07
9.5326e-07
5.1762e-07
5.16572e-07
5.43834e-07
5.46752e-07
9.36853e-07
9.53288e-07
5.17822e-07
5.20919e-07
5.42765e-07
5.46115e-07
5.19152e-07
5.45269e-07
5.46893e-07
9.41047e-07
9.54278e-07
5.1942e-07
5.45571e-07
5.46109e-07
9.5423e-07
9.61964e-07
9.88846e-07
5.54835e-07
5.56829e-07
5.96404e-07
5.9283e-07
9.62112e-07
9.87724e-07
5.54707e-07
5.55987e-07
5.9691e-07
5.96087e-07
5.57044e-07
5.9475e-07
5.93447e-07
9.61771e-07
9.87666e-07
5.55868e-07
5.94334e-07
5.93872e-07
9.87355e-07
9.97545e-07
1.01742e-06
6.09831e-07
6.08023e-07
6.42512e-07
6.46227e-07
9.96655e-07
1.01935e-06
6.08341e-07
6.09105e-07
6.4062e-07
6.44367e-07
6.06846e-07
6.45031e-07
6.45033e-07
9.97292e-07
1.0194e-06
6.07653e-07
6.45e-07
6.44375e-07
1.01941e-06
1.02572e-06
1.05168e-06
6.54195e-07
6.56016e-07
6.96043e-07
6.93391e-07
1.02683e-06
1.04821e-06
6.54286e-07
6.57427e-07
6.96893e-07
6.94547e-07
6.56864e-07
6.91622e-07
6.91877e-07
1.02698e-06
1.04873e-06
6.55944e-07
6.92107e-07
6.92369e-07
1.04813e-06
1.05956e-06
1.07533e-06
7.08361e-07
7.07508e-07
7.35694e-07
7.38757e-07
1.05713e-06
1.07912e-06
7.08199e-07
7.04779e-07
7.35438e-07
7.38623e-07
7.03828e-07
7.41641e-07
7.38826e-07
1.05645e-06
1.07682e-06
7.04586e-07
7.39937e-07
7.38203e-07
1.0772e-06
1.08213e-06
1.10702e-06
7.46194e-07
7.47738e-07
7.859e-07
7.8388e-07
1.08534e-06
1.10426e-06
7.46022e-07
7.51254e-07
7.84839e-07
7.82637e-07
7.49715e-07
7.82282e-07
7.81634e-07
1.0846e-06
1.10469e-06
7.48696e-07
7.80626e-07
7.81528e-07
1.1042e-06
1.11526e-06
1.13248e-06
7.97387e-07
7.96461e-07
8.23601e-07
8.23942e-07
1.11232e-06
1.13191e-06
7.97028e-07
7.92364e-07
8.25896e-07
8.27506e-07
7.9311e-07
8.26028e-07
8.27216e-07
1.11135e-06
1.13363e-06
7.93425e-07
8.29102e-07
8.27419e-07
1.1339e-06
1.13857e-06
1.15945e-06
8.33455e-07
8.3232e-07
8.67644e-07
8.66543e-07
1.138e-06
1.15801e-06
8.35115e-07
8.38381e-07
8.66836e-07
8.62579e-07
8.36858e-07
8.65507e-07
8.63371e-07
1.14134e-06
1.15605e-06
8.36901e-07
8.61205e-07
8.63333e-07
1.15683e-06
1.16659e-06
1.18211e-06
8.77065e-07
8.77728e-07
9.00171e-07
8.99872e-07
1.16532e-06
1.18055e-06
8.77159e-07
8.71103e-07
9.03294e-07
9.03131e-07
8.72758e-07
8.99409e-07
9.02244e-07
1.16143e-06
1.18313e-06
8.72692e-07
9.02673e-07
9.01822e-07
1.18335e-06
1.18769e-06
1.20518e-06
9.0882e-07
9.06768e-07
9.37028e-07
9.38416e-07
1.18579e-06
1.2073e-06
9.11023e-07
9.12521e-07
9.34378e-07
9.34529e-07
9.11625e-07
9.38851e-07
9.37628e-07
1.19062e-06
1.20514e-06
9.11001e-07
9.34125e-07
9.3639e-07
1.207e-06
1.21128e-06
1.22592e-06
9.45036e-07
9.4949e-07
9.65297e-07
9.70044e-07
1.21511e-06
1.22852e-06
9.42322e-07
9.42707e-07
9.66784e-07
9.70559e-07
9.45394e-07
9.65446e-07
9.67599e-07
1.21038e-06
1.23076e-06
9.44267e-07
9.69681e-07
9.68141e-07
1.22905e-06
1.23164e-06
1.25019e-06
9.72946e-07
9.75048e-07
9.97646e-07
9.95414e-07
1.23223e-06
1.24516e-06
9.7543e-07
9.78781e-07
9.98246e-07
9.97009e-07
9.75869e-07
9.92397e-07
9.98068e-07
1.23739e-06
1.24946e-06
9.76901e-07
9.96083e-07
9.98732e-07
1.25092e-06
1.25607e-06
1.26876e-06
1.00485e-06
1.00286e-06
1.02411e-06
1.02129e-06
1.25192e-06
1.26799e-06
1.00408e-06
1.00238e-06
1.02082e-06
1.02248e-06
1.00348e-06
1.02332e-06
1.02358e-06
1.25352e-06
1.26719e-06
1.0036e-06
1.02189e-06
1.0228e-06
1.268e-06
1.27351e-06
1.28536e-06
1.0302e-06
1.02678e-06
1.04623e-06
1.0441e-06
1.27256e-06
1.28415e-06
1.02678e-06
1.02968e-06
1.0432e-06
1.04642e-06
1.03217e-06
1.04479e-06
1.0498e-06
1.27347e-06
1.28783e-06
1.03149e-06
1.04769e-06
1.04988e-06
1.29038e-06
1.29e-06
1.30334e-06
1.05138e-06
1.05035e-06
1.06952e-06
1.06876e-06
1.28945e-06
1.30476e-06
1.0489e-06
1.05095e-06
1.06949e-06
1.06776e-06
1.05304e-06
1.07031e-06
1.06784e-06
1.29186e-06
1.30179e-06
1.05322e-06
1.06767e-06
1.06789e-06
1.30027e-06
1.30822e-06
1.31294e-06
1.07459e-06
1.07308e-06
1.08244e-06
1.08014e-06
1.30949e-06
1.31316e-06
1.07518e-06
1.0731e-06
1.08366e-06
1.08255e-06
1.07375e-06
1.08405e-06
1.0833e-06
1.30658e-06
1.31306e-06
1.07381e-06
1.08287e-06
1.08352e-06
1.31317e-06
1.3156e-06
1.33066e-06
1.08495e-06
1.08288e-06
1.10193e-06
1.10073e-06
1.31564e-06
1.3297e-06
1.08607e-06
1.08554e-06
1.10244e-06
1.10349e-06
1.08521e-06
1.10043e-06
1.09927e-06
1.31603e-06
1.33155e-06
1.08535e-06
1.10207e-06
1.09887e-06
1.3261e-06
1.33859e-06
1.34799e-06
1.10943e-06
1.10888e-06
1.1191e-06
1.12006e-06
1.33783e-06
1.34887e-06
1.10986e-06
1.11092e-06
1.11919e-06
1.12002e-06
1.10694e-06
1.1191e-06
1.1192e-06
1.33936e-06
1.34874e-06
1.10646e-06
1.11962e-06
1.11916e-06
1.34832e-06
1.34865e-06
1.31859e-06
1.1185e-06
1.11963e-06
1.10453e-06
1.10612e-06
1.34961e-06
1.31982e-06
1.11849e-06
1.11931e-06
1.1042e-06
1.10481e-06
1.11891e-06
1.10509e-06
1.10547e-06
1.34939e-06
1.3185e-06
1.11894e-06
1.10501e-06
1.10564e-06
1.32088e-06
1.31782e-06
1.30342e-06
1.0991e-06
1.10068e-06
1.09245e-06
1.09373e-06
1.31899e-06
1.30379e-06
1.09872e-06
1.09926e-06
1.09211e-06
1.09266e-06
1.09978e-06
1.0926e-06
1.09191e-06
1.31762e-06
1.30274e-06
1.09993e-06
1.09232e-06
1.09185e-06
1.30288e-06
1.30761e-06
1.3435e-06
1.09384e-06
1.09498e-06
1.12068e-06
1.12136e-06
1.30785e-06
1.3435e-06
1.09356e-06
1.09414e-06
1.12072e-06
1.12144e-06
1.09297e-06
1.1208e-06
1.11949e-06
1.30695e-06
1.34345e-06
1.09284e-06
1.12047e-06
1.11908e-06
1.34172e-06
1.35699e-06
1.41307e-06
1.13491e-06
1.13551e-06
1.17718e-06
1.17767e-06
1.35702e-06
1.41332e-06
1.13506e-06
1.13575e-06
1.17739e-06
1.17785e-06
1.13413e-06
1.17777e-06
1.17765e-06
1.35705e-06
1.41349e-06
1.13367e-06
1.17754e-06
1.17728e-06
1.41303e-06
1.42498e-06
1.44835e-06
1.18822e-06
1.18867e-06
1.20657e-06
1.20684e-06
1.42525e-06
1.44859e-06
1.18839e-06
1.18879e-06
1.20658e-06
1.20682e-06
1.18884e-06
1.20696e-06
1.20722e-06
1.42541e-06
1.44869e-06
1.18851e-06
1.20681e-06
1.20702e-06
1.44899e-06
1.4515e-06
1.43652e-06
1.20831e-06
1.20852e-06
1.20404e-06
1.20402e-06
1.45172e-06
1.4365e-06
1.20828e-06
1.20847e-06
1.20386e-06
1.20387e-06
1.20893e-06
1.20406e-06
1.20443e-06
1.45179e-06
1.4365e-06
1.20876e-06
1.20402e-06
1.20438e-06
1.43723e-06
1.43531e-06
1.37377e-06
1.1976e-06
1.19756e-06
1.16264e-06
1.1625e-06
1.43527e-06
1.37355e-06
1.1974e-06
1.1974e-06
1.16237e-06
1.16236e-06
1.19793e-06
1.16244e-06
1.16269e-06
1.43526e-06
1.37362e-06
1.19789e-06
1.16252e-06
1.16269e-06
1.37405e-06
1.36822e-06
1.2872e-06
1.14654e-06
1.14641e-06
1.09722e-06
1.09712e-06
1.36801e-06
1.28701e-06
1.14628e-06
1.14631e-06
1.09698e-06
1.09711e-06
1.14653e-06
1.09702e-06
1.09714e-06
1.36808e-06
1.28715e-06
1.14653e-06
1.09711e-06
1.0971e-06
1.28723e-06
1.2831e-06
1.24532e-06
1.08332e-06
1.08323e-06
1.05794e-06
1.0579e-06
1.28292e-06
1.2452e-06
1.08309e-06
1.08325e-06
1.05775e-06
1.05796e-06
1.08324e-06
1.05779e-06
1.05791e-06
1.28306e-06
1.24536e-06
1.0832e-06
1.05785e-06
1.05784e-06
1.24532e-06
1.24624e-06
1.26457e-06
1.05543e-06
1.0554e-06
1.06378e-06
1.0638e-06
1.24614e-06
1.2645e-06
1.05525e-06
1.05546e-06
1.06364e-06
1.06386e-06
1.05541e-06
1.06367e-06
1.06382e-06
1.24629e-06
1.26465e-06
1.05533e-06
1.06372e-06
1.06371e-06
1.26462e-06
1.275e-06
1.3178e-06
1.07322e-06
1.07325e-06
1.10348e-06
1.10351e-06
1.27494e-06
1.31775e-06
1.0731e-06
1.07331e-06
1.10336e-06
1.10354e-06
1.07328e-06
1.10338e-06
1.10354e-06
1.27507e-06
1.31785e-06
1.07316e-06
1.10343e-06
1.10343e-06
1.31786e-06
1.32826e-06
1.3618e-06
1.11235e-06
1.11239e-06
1.13434e-06
1.13438e-06
1.32821e-06
1.36174e-06
1.11225e-06
1.11241e-06
1.13424e-06
1.1344e-06
1.11242e-06
1.13425e-06
1.13441e-06
1.3283e-06
1.36183e-06
1.11231e-06
1.13431e-06
1.13431e-06
1.36186e-06
1.36979e-06
1.38958e-06
1.14005e-06
1.14009e-06
1.15255e-06
1.15259e-06
1.36973e-06
1.38953e-06
1.13996e-06
1.14011e-06
1.15246e-06
1.15262e-06
1.14012e-06
1.15246e-06
1.15263e-06
1.36982e-06
1.38962e-06
1.14002e-06
1.15253e-06
1.15254e-06
1.38966e-06
1.39492e-06
1.40444e-06
1.1554e-06
1.15544e-06
1.16111e-06
1.16115e-06
1.39486e-06
1.40438e-06
1.15531e-06
1.15547e-06
1.16102e-06
1.16118e-06
1.15548e-06
1.16102e-06
1.16119e-06
1.39495e-06
1.40447e-06
1.15539e-06
1.1611e-06
1.1611e-06
1.40451e-06
1.40794e-06
1.4114e-06
1.16233e-06
1.16237e-06
1.1647e-06
1.16473e-06
1.40788e-06
1.41134e-06
1.16224e-06
1.1624e-06
1.1646e-06
1.16476e-06
1.16242e-06
1.16461e-06
1.16478e-06
1.40797e-06
1.41143e-06
1.16233e-06
1.16468e-06
1.16469e-06
1.41147e-06
1.4139e-06
1.41417e-06
1.16518e-06
1.16521e-06
1.16596e-06
1.166e-06
1.41385e-06
1.41412e-06
1.16508e-06
1.16524e-06
1.16587e-06
1.16603e-06
1.16526e-06
1.16587e-06
1.16605e-06
1.41393e-06
1.4142e-06
1.16517e-06
1.16595e-06
1.16596e-06
1.41425e-06
1.4162e-06
1.41484e-06
1.16608e-06
1.16611e-06
1.16617e-06
1.16621e-06
1.41616e-06
1.41479e-06
1.16598e-06
1.16614e-06
1.16608e-06
1.16624e-06
1.16616e-06
1.16608e-06
1.16626e-06
1.41624e-06
1.41488e-06
1.16607e-06
1.16616e-06
1.16617e-06
1.41492e-06
1.41674e-06
1.41486e-06
1.16617e-06
1.1662e-06
1.16613e-06
1.16616e-06
1.41669e-06
1.41481e-06
1.16607e-06
1.16623e-06
1.16604e-06
1.1662e-06
1.16626e-06
1.16604e-06
1.16622e-06
1.41677e-06
1.4149e-06
1.16616e-06
1.16612e-06
1.16612e-06
1.41494e-06
1.41669e-06
1.41522e-06
1.16613e-06
1.16617e-06
1.16626e-06
1.16629e-06
1.41664e-06
1.41517e-06
1.16604e-06
1.1662e-06
1.16616e-06
1.16632e-06
1.16622e-06
1.16617e-06
1.16634e-06
1.41673e-06
1.41526e-06
1.16613e-06
1.16625e-06
1.16625e-06
1.41529e-06
1.41711e-06
1.41516e-06
1.16628e-06
1.16632e-06
1.16622e-06
1.16626e-06
1.41707e-06
1.4151e-06
1.16619e-06
1.16635e-06
1.16613e-06
1.16629e-06
1.16637e-06
1.16613e-06
1.16631e-06
1.41715e-06
1.41519e-06
1.16627e-06
1.16621e-06
1.16622e-06
1.41523e-06
1.41696e-06
1.415e-06
1.16619e-06
1.16623e-06
1.16618e-06
1.16621e-06
1.4169e-06
1.41495e-06
1.1661e-06
1.16626e-06
1.16609e-06
1.16625e-06
1.16628e-06
1.16609e-06
1.16626e-06
1.41699e-06
1.41504e-06
1.16619e-06
1.16617e-06
1.16617e-06
1.41508e-06
1.41688e-06
1.41525e-06
1.1662e-06
1.16624e-06
1.16624e-06
1.16628e-06
1.41684e-06
1.4152e-06
1.16611e-06
1.16627e-06
1.16615e-06
1.16631e-06
1.16629e-06
1.16616e-06
1.16633e-06
1.41692e-06
1.41529e-06
1.1662e-06
1.16623e-06
1.16624e-06
1.41533e-06
1.41709e-06
1.41499e-06
1.16624e-06
1.16627e-06
1.16618e-06
1.16622e-06
1.41703e-06
1.41493e-06
1.16615e-06
1.1663e-06
1.16609e-06
1.16625e-06
1.16632e-06
1.1661e-06
1.16627e-06
1.41712e-06
1.41503e-06
1.16623e-06
1.16617e-06
1.16618e-06
1.41506e-06
1.41682e-06
1.41514e-06
1.16619e-06
1.16622e-06
1.16621e-06
1.16625e-06
1.41677e-06
1.41509e-06
1.1661e-06
1.16626e-06
1.16612e-06
1.16628e-06
1.16628e-06
1.16613e-06
1.1663e-06
1.41685e-06
1.41519e-06
1.16619e-06
1.1662e-06
1.16621e-06
1.41523e-06
1.41701e-06
1.41508e-06
1.16622e-06
1.16626e-06
1.1662e-06
1.16624e-06
1.41697e-06
1.41502e-06
1.16613e-06
1.16629e-06
1.16611e-06
1.16627e-06
1.16631e-06
1.16611e-06
1.16629e-06
1.41705e-06
1.41511e-06
1.16622e-06
1.16619e-06
1.1662e-06
1.41515e-06
1.41688e-06
1.41511e-06
1.1662e-06
1.16624e-06
1.1662e-06
1.16623e-06
1.41682e-06
1.41507e-06
1.16611e-06
1.16627e-06
1.16611e-06
1.16627e-06
1.16629e-06
1.16611e-06
1.16629e-06
1.4169e-06
1.41516e-06
1.1662e-06
1.16619e-06
1.16619e-06
1.4152e-06
1.417e-06
1.41505e-06
1.16621e-06
1.16625e-06
1.16619e-06
1.16623e-06
1.41696e-06
1.41499e-06
1.16612e-06
1.16628e-06
1.1661e-06
1.16626e-06
1.1663e-06
1.16611e-06
1.16628e-06
1.41705e-06
1.41508e-06
1.16621e-06
1.16618e-06
1.16619e-06
1.41513e-06
1.41686e-06
1.41511e-06
1.1662e-06
1.16624e-06
1.16619e-06
1.16623e-06
1.41681e-06
1.41508e-06
1.16611e-06
1.16627e-06
1.1661e-06
1.16626e-06
1.16629e-06
1.16611e-06
1.16628e-06
1.41689e-06
1.41516e-06
1.16619e-06
1.16618e-06
1.16619e-06
1.4152e-06
1.417e-06
1.41501e-06
1.16621e-06
1.16625e-06
1.16618e-06
1.16622e-06
1.41697e-06
1.41494e-06
1.16612e-06
1.16628e-06
1.16609e-06
1.16625e-06
1.1663e-06
1.16609e-06
1.16627e-06
1.41705e-06
1.41504e-06
1.16621e-06
1.16617e-06
1.16618e-06
1.41508e-06
1.41684e-06
1.41515e-06
1.16621e-06
1.16624e-06
1.16618e-06
1.16622e-06
1.41677e-06
1.41511e-06
1.16611e-06
1.16628e-06
1.16609e-06
1.16625e-06
1.1663e-06
1.16609e-06
1.16627e-06
1.41686e-06
1.4152e-06
1.1662e-06
1.16617e-06
1.16617e-06
1.41523e-06
1.41702e-06
1.41497e-06
1.16621e-06
1.16625e-06
1.16617e-06
1.16621e-06
1.41696e-06
1.41493e-06
1.16612e-06
1.16629e-06
1.16608e-06
1.16624e-06
1.1663e-06
1.16608e-06
1.16626e-06
1.41705e-06
1.41502e-06
1.16621e-06
1.16616e-06
1.16617e-06
1.41505e-06
1.41683e-06
1.41511e-06
1.16622e-06
1.16626e-06
1.16616e-06
1.1662e-06
1.41681e-06
1.41503e-06
1.16613e-06
1.16629e-06
1.16607e-06
1.16623e-06
1.16631e-06
1.16608e-06
1.16625e-06
1.41689e-06
1.41513e-06
1.16621e-06
1.16615e-06
1.16616e-06
1.41518e-06
1.41693e-06
1.41508e-06
1.16623e-06
1.16627e-06
1.16615e-06
1.16619e-06
1.41684e-06
1.41507e-06
1.16614e-06
1.1663e-06
1.16606e-06
1.16622e-06
1.16632e-06
1.16606e-06
1.16624e-06
1.41693e-06
1.41516e-06
1.16622e-06
1.16614e-06
1.16615e-06
1.41519e-06
1.41697e-06
1.41498e-06
1.16624e-06
1.16628e-06
1.16613e-06
1.16617e-06
1.41695e-06
1.41494e-06
1.16615e-06
1.16632e-06
1.16604e-06
1.1662e-06
1.16634e-06
1.16605e-06
1.16622e-06
1.41703e-06
1.41503e-06
1.16624e-06
1.16612e-06
1.16613e-06
1.41507e-06
1.41685e-06
1.41505e-06
1.16627e-06
1.16631e-06
1.16612e-06
1.16615e-06
1.41683e-06
1.41498e-06
1.16618e-06
1.16634e-06
1.16603e-06
1.16619e-06
1.16636e-06
1.16603e-06
1.16621e-06
1.41692e-06
1.41508e-06
1.16627e-06
1.16611e-06
1.16611e-06
1.41514e-06
1.41687e-06
1.41488e-06
1.16631e-06
1.16634e-06
1.16572e-06
1.16576e-06
1.41682e-06
1.41482e-06
1.16622e-06
1.16638e-06
1.16563e-06
1.16579e-06
1.1664e-06
1.16564e-06
1.16581e-06
1.4169e-06
1.41492e-06
1.1663e-06
1.16571e-06
1.16571e-06
1.41494e-06
1.41662e-06
1.39587e-06
1.16601e-06
1.16605e-06
1.14491e-06
1.14494e-06
1.41657e-06
1.39586e-06
1.16592e-06
1.16608e-06
1.14489e-06
1.1449e-06
1.1661e-06
1.14494e-06
1.14497e-06
1.41663e-06
1.3959e-06
1.16599e-06
1.14494e-06
1.14494e-06
1.39593e-06
1.37447e-06
1.10822e-06
1.10824e-06
1.37447e-06
1.10822e-06
1.1082e-06
6.21241e-07
6.21212e-07
6.2126e-07
1.10828e-06
1.37449e-06
1.10827e-06
1.31012e-08
2.98426e-09
8.21456e-09
8.20539e-09
1.87932e-09
4.38979e-09
1.19326e-08
4.38026e-09
1.57933e-09
4.18207e-09
4.67531e-09
4.00341e-09
5.24057e-09
2.33637e-08
3.68533e-09
7.38235e-09
1.63621e-07
5.87607e-09
2.59579e-07
1.61873e-06
3.20751e-06
7.39391e-09
1.62775e-07
6.06144e-09
2.58198e-07
4.87191e-09
4.95305e-09
4.8085e-09
4.84249e-09
4.84936e-09
4.93878e-09
4.77784e-09
1.84905e-09
8.73595e-08
2.71671e-09
4.7512e-09
1.89919e-09
6.55186e-08
2.67691e-09
1.63038e-06
3.2213e-06
1.47795e-09
4.0024e-09
8.45058e-08
5.08369e-09
1.51496e-09
3.97973e-09
6.28204e-08
2.29324e-07
2.15452e-07
4.82841e-09
1.99304e-07
1.84195e-07
1.66499e-08
4.68293e-07
1.21342e-08
6.65159e-07
7.12015e-06
1.01559e-05
1.64262e-08
4.65974e-07
1.18137e-08
6.638e-07
4.84291e-09
4.93608e-09
4.77571e-09
4.82174e-09
4.82996e-09
4.93111e-09
4.77378e-09