/*--------------------------------*- C++ -*----------------------------------*\
| =========                 |                                                 |
| \\      /  F ield         | OpenFOAM: The Open Source CFD Toolbox           |
|  \\    /   O peration     | Version:  v1906                                 |
|   \\  /    A nd           | Web:      www.OpenFOAM.com                      |
|    \\/     M anipulation  |                                                 |
\*---------------------------------------------------------------------------*/
FoamFile
{
    version     2.0;
    format      ascii;
    class       volScalarField;
    location    "275";
    object      k;
}
// * * * * * * * * * * * * * * * * * * * * * * * * * * * * * * * * * * * * * //

dimensions      [0 2 -2 0 0 0 0];


internalField   nonuniform List<scalar> 
171728
(
6.92701e-07
3.56943e-07
3.39283e-07
3.56743e-07
6.84093e-07
3.39116e-07
3.3836e-07
3.37353e-07
6.90263e-07
3.23072e-07
3.45321e-07
3.19203e-07
6.96896e-07
3.07208e-07
3.48217e-07
3.03292e-07
7.04407e-07
2.92872e-07
3.57888e-07
2.89304e-07
7.11964e-07
2.81114e-07
4.03028e-07
2.76603e-07
7.20736e-07
2.69588e-07
4.5285e-07
2.64852e-07
7.29476e-07
2.59673e-07
4.60123e-07
2.54536e-07
7.39338e-07
2.51937e-07
3.94566e-07
2.45547e-07
7.49489e-07
2.45615e-07
3.36049e-07
2.37425e-07
7.60765e-07
2.40926e-07
3.04549e-07
2.30775e-07
7.71701e-07
2.37786e-07
2.75359e-07
2.25781e-07
7.83623e-07
2.36719e-07
2.42794e-07
2.21313e-07
7.95636e-07
2.37989e-07
2.18472e-07
2.17768e-07
8.07561e-07
2.41605e-07
2.05241e-07
2.16843e-07
8.20219e-07
2.48402e-07
2.04451e-07
2.20002e-07
8.32333e-07
2.60799e-07
2.13725e-07
2.28939e-07
8.44529e-07
2.76329e-07
2.35687e-07
2.48712e-07
8.57042e-07
3.07805e-07
2.81028e-07
2.86681e-07
8.69583e-07
3.79658e-07
3.52247e-07
3.50587e-07
8.83761e-07
4.02614e-07
4.78955e-07
5.16326e-07
8.97137e-07
5.95421e-07
6.95968e-07
7.64984e-07
9.14665e-07
7.08006e-07
8.63599e-07
1.02495e-06
9.3046e-07
9.78717e-07
1.11942e-06
1.88581e-06
9.54894e-07
1.24667e-06
1.56471e-06
2.64833e-06
9.68209e-07
1.7691e-06
1.78035e-06
4.43041e-06
1.00911e-06
2.06181e-06
2.28346e-06
5.08952e-06
1.02645e-06
3.04025e-06
3.19817e-06
8.97342e-06
1.08484e-06
3.26986e-06
3.60628e-06
9.03231e-06
1.10852e-06
5.34405e-06
4.57205e-06
1.45872e-05
1.20933e-06
5.35304e-06
5.36853e-06
1.38148e-05
1.26456e-06
6.44009e-06
6.94087e-06
1.8509e-05
1.37646e-06
8.14349e-06
7.91111e-06
2.01188e-05
1.51709e-06
9.01964e-06
9.48227e-06
2.16988e-05
1.64638e-06
1.11028e-05
1.04931e-05
2.39545e-05
1.91321e-06
1.16705e-05
1.24622e-05
2.54899e-05
2.05355e-06
1.49529e-05
1.36866e-05
2.704e-05
2.57203e-06
1.5682e-05
1.64516e-05
2.85172e-05
2.63294e-06
1.64453e-05
1.68103e-05
2.91054e-05
3.43715e-06
2.00083e-05
1.98917e-05
3.15564e-05
3.7264e-06
2.10814e-05
2.11641e-05
3.21433e-05
4.3354e-06
2.2804e-05
2.28279e-05
3.32254e-05
4.94664e-06
2.48773e-05
2.47648e-05
3.45323e-05
5.89956e-06
2.63829e-05
2.65695e-05
3.55793e-05
6.73998e-06
2.85518e-05
2.83934e-05
3.67664e-05
7.65154e-06
2.98734e-05
2.98187e-05
3.77165e-05
8.90426e-06
3.16595e-05
3.19037e-05
3.90309e-05
9.96471e-06
3.31939e-05
3.3005e-05
3.98491e-05
1.13573e-05
3.4446e-05
3.46458e-05
4.0942e-05
1.25832e-05
3.61227e-05
3.58301e-05
4.1937e-05
1.3908e-05
3.73837e-05
3.73604e-05
4.27712e-05
1.55053e-05
3.8185e-05
3.8565e-05
4.38462e-05
1.69349e-05
3.97294e-05
3.95242e-05
4.43496e-05
1.85318e-05
4.06685e-05
4.08838e-05
4.56789e-05
1.98042e-05
4.20025e-05
4.18582e-05
4.60558e-05
2.17172e-05
4.2963e-05
4.2751e-05
4.68977e-05
2.26278e-05
4.33653e-05
4.35265e-05
4.71866e-05
2.516e-05
4.54404e-05
4.54761e-05
4.916e-05
2.62642e-05
4.52543e-05
4.52673e-05
4.85905e-05
2.54994e-05
4.36904e-05
4.36842e-05
4.68398e-05
2.53574e-05
4.43511e-05
4.43349e-05
4.77877e-05
3.02139e-05
4.85594e-05
4.85526e-05
5.15479e-05
3.44101e-05
5.14243e-05
5.14212e-05
5.42538e-05
3.61217e-05
5.22342e-05
5.22308e-05
5.47857e-05
3.56476e-05
5.0598e-05
5.06004e-05
5.2899e-05
3.09631e-05
4.62311e-05
4.62351e-05
4.87033e-05
2.6879e-05
4.302e-05
4.30226e-05
4.56622e-05
2.5594e-05
4.27103e-05
4.27122e-05
4.57897e-05
2.90242e-05
4.58428e-05
4.58435e-05
4.85536e-05
3.39519e-05
4.85912e-05
4.85918e-05
5.10278e-05
3.72391e-05
5.03749e-05
5.03758e-05
5.2652e-05
3.89073e-05
5.12572e-05
5.12581e-05
5.34776e-05
3.96364e-05
5.16403e-05
5.1641e-05
5.38463e-05
3.99402e-05
5.17917e-05
5.17922e-05
5.39925e-05
4.0028e-05
5.18249e-05
5.18256e-05
5.40337e-05
4.00336e-05
5.18201e-05
5.18207e-05
5.40336e-05
4.00465e-05
5.18308e-05
5.18312e-05
5.404e-05
4.00486e-05
5.18317e-05
5.18323e-05
5.40503e-05
4.00441e-05
5.18247e-05
5.18254e-05
5.40289e-05
4.00466e-05
5.18311e-05
5.18317e-05
5.40481e-05
4.00447e-05
5.18262e-05
5.18269e-05
5.40361e-05
4.00456e-05
5.18291e-05
5.18298e-05
5.4039e-05
4.00452e-05
5.18281e-05
5.18286e-05
5.40438e-05
4.00451e-05
5.18282e-05
5.18289e-05
5.40354e-05
4.00449e-05
5.1828e-05
5.18286e-05
5.40437e-05
4.00447e-05
5.18282e-05
5.18287e-05
5.40376e-05
4.00446e-05
5.18277e-05
5.18283e-05
5.404e-05
4.00446e-05
5.18283e-05
5.18288e-05
5.40427e-05
4.00447e-05
5.18282e-05
5.18288e-05
5.40332e-05
4.00448e-05
5.18287e-05
5.18293e-05
5.4047e-05
4.00449e-05
5.18293e-05
5.18299e-05
5.40383e-05
4.00452e-05
5.183e-05
5.18306e-05
5.40343e-05
4.00453e-05
5.18316e-05
5.1832e-05
5.4045e-05
4.00344e-05
5.18144e-05
5.18147e-05
5.4037e-05
3.95852e-05
5.06523e-05
5.06513e-05
5.36871e-05
3.68859e-07
3.51339e-07
3.38475e-07
3.49022e-07
3.43261e-07
3.46967e-07
7.0899e-07
7.09214e-07
7.1881e-07
7.05982e-07
3.45413e-07
2.94601e-07
3.60188e-07
3.2628e-07
3.42189e-07
3.57624e-07
3.67697e-07
3.49848e-07
3.51845e-07
3.41496e-07
3.39147e-07
3.29809e-07
3.4662e-07
3.33151e-07
3.46729e-07
3.5462e-07
3.34424e-07
3.41569e-07
2.68057e-07
3.43399e-07
2.54021e-07
3.57882e-07
3.41192e-07
3.49001e-07
3.38023e-07
3.36137e-07
3.38574e-07
3.48398e-07
3.3202e-07
3.34928e-07
3.25995e-07
3.23112e-07
3.151e-07
3.30474e-07
3.18234e-07
3.30452e-07
3.37148e-07
3.18916e-07
3.24743e-07
2.51602e-07
3.27074e-07
2.46595e-07
3.37953e-07
3.23593e-07
3.32075e-07
3.43535e-07
3.19661e-07
3.2038e-07
3.30141e-07
3.15786e-07
3.1945e-07
3.11609e-07
3.08551e-07
3.01562e-07
3.15753e-07
3.04599e-07
3.15314e-07
3.20941e-07
3.04982e-07
3.10661e-07
2.45519e-07
3.11157e-07
2.43111e-07
3.20893e-07
3.10175e-07
3.15752e-07
3.47869e-07
3.05957e-07
3.04378e-07
3.1344e-07
3.00302e-07
3.04957e-07
2.98322e-07
2.94993e-07
2.88478e-07
3.02316e-07
2.91383e-07
3.01654e-07
3.07399e-07
2.92162e-07
2.97919e-07
2.42186e-07
2.96194e-07
2.38749e-07
3.07981e-07
2.99963e-07
3.03001e-07
3.52457e-07
2.94227e-07
2.90799e-07
2.97904e-07
2.86252e-07
2.91888e-07
2.85427e-07
2.82881e-07
2.76749e-07
2.89078e-07
2.7785e-07
2.89205e-07
2.94922e-07
2.81057e-07
2.86586e-07
2.37417e-07
2.83977e-07
2.33727e-07
2.98389e-07
2.97861e-07
2.91283e-07
3.89013e-07
2.82885e-07
2.78187e-07
2.84053e-07
2.73727e-07
2.80021e-07
2.74113e-07
2.72519e-07
2.67412e-07
2.75581e-07
2.65642e-07
2.78614e-07
2.83866e-07
2.71956e-07
2.76065e-07
2.32636e-07
2.72373e-07
2.30238e-07
2.97511e-07
2.99913e-07
2.80129e-07
4.43338e-07
2.72019e-07
2.66345e-07
2.71748e-07
2.62509e-07
2.70333e-07
2.65308e-07
2.64161e-07
2.59279e-07
2.63749e-07
2.55058e-07
2.69698e-07
2.73762e-07
2.63447e-07
2.67418e-07
2.29884e-07
2.61869e-07
2.29458e-07
2.99041e-07
2.97608e-07
2.69557e-07
4.6137e-07
2.63011e-07
2.55866e-07
2.60751e-07
2.5288e-07
2.62242e-07
2.57635e-07
2.56883e-07
2.53178e-07
2.53252e-07
2.45151e-07
2.61755e-07
2.65495e-07
2.56811e-07
2.59927e-07
2.29496e-07
2.53692e-07
2.30048e-07
2.95765e-07
2.83345e-07
2.60909e-07
4.13258e-07
2.54645e-07
2.46571e-07
2.51347e-07
2.4387e-07
2.55222e-07
2.51807e-07
2.50784e-07
2.48502e-07
2.43595e-07
2.37006e-07
2.55092e-07
2.58211e-07
2.50302e-07
2.53534e-07
2.30414e-07
2.47011e-07
2.3236e-07
2.79073e-07
2.6312e-07
2.52783e-07
3.47861e-07
2.48267e-07
2.38088e-07
2.42961e-07
2.35471e-07
2.4952e-07
2.47715e-07
2.46139e-07
2.46529e-07
2.35984e-07
2.29874e-07
2.49242e-07
2.52216e-07
2.46592e-07
2.48425e-07
2.33075e-07
2.4197e-07
2.34789e-07
2.60033e-07
2.49173e-07
2.47077e-07
3.10967e-07
2.44461e-07
2.31175e-07
2.34835e-07
2.27582e-07
2.45199e-07
2.46071e-07
2.42955e-07
2.44368e-07
2.29343e-07
2.23584e-07
2.45724e-07
2.47337e-07
2.42958e-07
2.44958e-07
2.35206e-07
2.38368e-07
2.36578e-07
2.47902e-07
2.3665e-07
2.43691e-07
2.83317e-07
2.42094e-07
2.26087e-07
2.2704e-07
2.20495e-07
2.42333e-07
2.43823e-07
2.41294e-07
2.42155e-07
2.23143e-07
2.17675e-07
2.42141e-07
2.44299e-07
2.39796e-07
2.42774e-07
2.37125e-07
2.3668e-07
2.38531e-07
2.35652e-07
2.2425e-07
2.41558e-07
2.50593e-07
2.40476e-07
2.21465e-07
2.20135e-07
2.15122e-07
2.41192e-07
2.42061e-07
2.41533e-07
2.41606e-07
2.17423e-07
2.13565e-07
2.39475e-07
2.42493e-07
2.39846e-07
2.42286e-07
2.39106e-07
2.37539e-07
2.41756e-07
2.23462e-07
2.14313e-07
2.40187e-07
2.23394e-07
2.39969e-07
2.17701e-07
2.15134e-07
2.12448e-07
2.41938e-07
2.41671e-07
2.43491e-07
2.43202e-07
2.13617e-07
2.12013e-07
2.40445e-07
2.4246e-07
2.43267e-07
2.43942e-07
2.42847e-07
2.40505e-07
2.46802e-07
2.13955e-07
2.07285e-07
2.40143e-07
2.07858e-07
2.4164e-07
2.16167e-07
2.13014e-07
2.14841e-07
2.44447e-07
2.44267e-07
2.48726e-07
2.49526e-07
2.12588e-07
2.13958e-07
2.44765e-07
2.4467e-07
2.50567e-07
2.48861e-07
2.48339e-07
2.46421e-07
2.54006e-07
2.07509e-07
2.05463e-07
2.4243e-07
2.03938e-07
2.46551e-07
2.18306e-07
2.16287e-07
2.2434e-07
2.50321e-07
2.52043e-07
2.59562e-07
2.59811e-07
2.1573e-07
2.20899e-07
2.53011e-07
2.50751e-07
2.64562e-07
2.58365e-07
2.55999e-07
2.55978e-07
2.65262e-07
2.06731e-07
2.10269e-07
2.48353e-07
2.10367e-07
2.5633e-07
2.25269e-07
2.27635e-07
2.41097e-07
2.61861e-07
2.6452e-07
2.76419e-07
2.74036e-07
2.24564e-07
2.35194e-07
2.68218e-07
2.62845e-07
2.82421e-07
2.73557e-07
2.68898e-07
2.70328e-07
2.84056e-07
2.13959e-07
2.23658e-07
2.59481e-07
2.27411e-07
2.74275e-07
2.41404e-07
2.49173e-07
2.74229e-07
2.82749e-07
2.80525e-07
3.03994e-07
3.09118e-07
2.39731e-07
2.78356e-07
2.8844e-07
2.81477e-07
3.05513e-07
3.04144e-07
2.89771e-07
3.0478e-07
3.12964e-07
2.30272e-07
2.63186e-07
2.79913e-07
2.67721e-07
3.02351e-07
2.72277e-07
2.8399e-07
3.40636e-07
3.11688e-07
3.1229e-07
3.5205e-07
3.61137e-07
2.84303e-07
3.57745e-07
3.11058e-07
3.12923e-07
3.46936e-07
3.49443e-07
3.24816e-07
3.54034e-07
3.5516e-07
2.73363e-07
3.26239e-07
3.14049e-07
3.29982e-07
3.43191e-07
3.33738e-07
3.60357e-07
4.5186e-07
3.59754e-07
3.85765e-07
4.23308e-07
4.04168e-07
4.08813e-07
3.9589e-07
3.53747e-07
3.65487e-07
4.12659e-07
4.19807e-07
3.71761e-07
3.97765e-07
4.40659e-07
3.48157e-07
4.55732e-07
3.57806e-07
4.53882e-07
4.24577e-07
4.84914e-07
5.15847e-07
6.38893e-07
4.4882e-07
4.09185e-07
5.20725e-07
5.65168e-07
3.98597e-07
8.55004e-07
4.36013e-07
4.45591e-07
5.12186e-07
5.17713e-07
4.53058e-07
5.59215e-07
5.45751e-07
4.85434e-07
6.87995e-07
4.35843e-07
6.2931e-07
5.29455e-07
6.42544e-07
6.88054e-07
9.72598e-07
5.54027e-07
6.02055e-07
6.46662e-07
6.50118e-07
9.62884e-07
9.71221e-07
5.5581e-07
5.66679e-07
6.22526e-07
6.74893e-07
5.95148e-07
6.49683e-07
6.69653e-07
7.33782e-07
1.15706e-06
5.69772e-07
7.89876e-07
6.60974e-07
9.91103e-07
1.06757e-06
1.86169e-06
7.08536e-07
7.1662e-07
9.61646e-07
9.02274e-07
1.01625e-06
1.77336e-06
6.66746e-07
7.05226e-07
9.57284e-07
9.4406e-07
7.33474e-07
9.14496e-07
9.26134e-07
1.2112e-06
1.75331e-06
7.16858e-07
1.10065e-06
9.08995e-07
1.80096e-06
1.96169e-06
2.10639e-06
9.8638e-07
9.50008e-07
1.14467e-06
1.2005e-06
1.85399e-06
2.46413e-06
9.82631e-07
9.716e-07
1.14071e-06
1.14238e-06
9.98114e-07
1.14798e-06
1.18766e-06
1.91285e-06
2.27459e-06
9.82321e-07
1.39938e-06
1.1476e-06
2.50135e-06
2.5897e-06
3.91518e-06
1.35843e-06
1.25865e-06
1.60901e-06
1.61522e-06
2.64559e-06
3.97438e-06
1.33877e-06
1.36742e-06
1.54514e-06
1.66579e-06
1.23027e-06
1.64596e-06
1.72626e-06
2.86745e-06
4.29018e-06
1.2117e-06
1.77121e-06
1.65804e-06
3.89368e-06
3.92154e-06
5.56296e-06
1.61826e-06
1.78327e-06
2.11716e-06
1.99041e-06
4.29935e-06
4.93375e-06
1.57098e-06
1.67768e-06
2.07533e-06
1.90074e-06
1.87193e-06
1.93694e-06
1.99515e-06
4.27174e-06
4.28818e-06
1.79332e-06
2.03015e-06
1.93991e-06
5.05238e-06
6.53033e-06
7.88061e-06
2.44222e-06
2.09532e-06
2.73745e-06
3.00261e-06
5.05256e-06
8.76679e-06
2.34688e-06
2.17053e-06
2.78774e-06
2.77243e-06
2.07396e-06
2.96309e-06
2.97528e-06
5.11866e-06
8.54384e-06
2.02108e-06
2.98897e-06
2.95588e-06
8.4115e-06
7.92188e-06
9.29733e-06
2.75792e-06
3.07661e-06
3.41513e-06
3.07906e-06
8.98413e-06
7.67581e-06
2.81735e-06
2.95198e-06
3.35493e-06
3.38732e-06
3.09657e-06
3.07201e-06
3.22288e-06
8.84721e-06
9.56004e-06
3.1238e-06
3.55596e-06
3.23084e-06
8.98817e-06
1.05668e-05
1.24078e-05
3.84629e-06
3.23317e-06
4.28835e-06
5.268e-06
7.80312e-06
1.64659e-05
3.77399e-06
3.49326e-06
4.20305e-06
4.27287e-06
3.42267e-06
5.1854e-06
4.74665e-06
9.98739e-06
1.19014e-05
3.32827e-06
4.1884e-06
4.65814e-06
1.41059e-05
1.24622e-05
1.48796e-05
4.3284e-06
5.46081e-06
5.39728e-06
5.43755e-06
1.69123e-05
1.46202e-05
4.25124e-06
4.64219e-06
5.39874e-06
5.2088e-06
4.88981e-06
5.34081e-06
4.94977e-06
1.26292e-05
1.49632e-05
4.8736e-06
5.29653e-06
4.98826e-06
1.38177e-05
1.60345e-05
1.72704e-05
5.86639e-06
5.43646e-06
6.26597e-06
5.78347e-06
1.46386e-05
1.67512e-05
5.86267e-06
5.28742e-06
6.26016e-06
6.44391e-06
4.98328e-06
5.98494e-06
6.4258e-06
1.51727e-05
1.70143e-05
5.0287e-06
6.29999e-06
6.48612e-06
1.73712e-05
1.73755e-05
1.95412e-05
6.44935e-06
6.35981e-06
7.6538e-06
8.0461e-06
1.72643e-05
2.00168e-05
6.38254e-06
7.01945e-06
7.45455e-06
7.78976e-06
7.11728e-06
7.8762e-06
7.9321e-06
1.78769e-05
1.98751e-05
7.12635e-06
7.8553e-06
7.81672e-06
1.99451e-05
2.04149e-05
2.14958e-05
8.04221e-06
8.26759e-06
9.00795e-06
8.55583e-06
2.05787e-05
2.12121e-05
7.91714e-06
7.84484e-06
9.19539e-06
8.84451e-06
7.98495e-06
8.62959e-06
8.92286e-06
2.00496e-05
2.11237e-05
7.87384e-06
8.7907e-06
8.96845e-06
2.10023e-05
2.17575e-05
2.3465e-05
9.12575e-06
8.87878e-06
1.02195e-05
1.07849e-05
2.16207e-05
2.35246e-05
9.37685e-06
9.52876e-06
1.00021e-05
1.03175e-05
9.48371e-06
1.07381e-05
1.01271e-05
2.18687e-05
2.37089e-05
9.47178e-06
1.02874e-05
1.00783e-05
2.35723e-05
2.38978e-05
2.49314e-05
1.09229e-05
1.11954e-05
1.22329e-05
1.15709e-05
2.38393e-05
2.45388e-05
1.06745e-05
1.05483e-05
1.22215e-05
1.22001e-05
1.04934e-05
1.14559e-05
1.2366e-05
2.40051e-05
2.48245e-05
1.05293e-05
1.21501e-05
1.24224e-05
2.51623e-05
2.52171e-05
2.66886e-05
1.23442e-05
1.17412e-05
1.31002e-05
1.41976e-05
2.49658e-05
2.74831e-05
1.23866e-05
1.24963e-05
1.30781e-05
1.30349e-05
1.26603e-05
1.42452e-05
1.31121e-05
2.5118e-05
2.66037e-05
1.2707e-05
1.30191e-05
1.31183e-05
2.65813e-05
2.71801e-05
2.82245e-05
1.40362e-05
1.49611e-05
1.59941e-05
1.57704e-05
2.78682e-05
2.77913e-05
1.39355e-05
1.36877e-05
1.59347e-05
1.60861e-05
1.36167e-05
1.56716e-05
1.59864e-05
2.72097e-05
2.84739e-05
1.35503e-05
1.60892e-05
1.59421e-05
2.8329e-05
2.83613e-05
2.88513e-05
1.6172e-05
1.57859e-05
1.6424e-05
1.59463e-05
2.78503e-05
2.8691e-05
1.61477e-05
1.6455e-05
1.63951e-05
1.67287e-05
1.63538e-05
1.5859e-05
1.66397e-05
2.86093e-05
2.87533e-05
1.63205e-05
1.67125e-05
1.66156e-05
2.87922e-05
2.92892e-05
3.12272e-05
1.6762e-05
1.64744e-05
1.9385e-05
1.95172e-05
2.9324e-05
3.13245e-05
1.66686e-05
1.68324e-05
1.94002e-05
1.9029e-05
1.67656e-05
1.95789e-05
1.91054e-05
2.90602e-05
3.11276e-05
1.67526e-05
1.89696e-05
1.91009e-05
3.11503e-05
3.15017e-05
3.18199e-05
1.9983e-05
1.99077e-05
2.0761e-05
2.09125e-05
3.15326e-05
3.18201e-05
2.00573e-05
1.99187e-05
2.06966e-05
2.10029e-05
1.98734e-05
2.07672e-05
2.09705e-05
3.15729e-05
3.20329e-05
1.98881e-05
2.10772e-05
2.09928e-05
3.20028e-05
3.19915e-05
3.30265e-05
2.09457e-05
2.12479e-05
2.23262e-05
2.20681e-05
3.20361e-05
3.29222e-05
2.08341e-05
2.1115e-05
2.25318e-05
2.23534e-05
2.12214e-05
2.22485e-05
2.2274e-05
3.21471e-05
3.28599e-05
2.11736e-05
2.21981e-05
2.22324e-05
3.28825e-05
3.33995e-05
3.4135e-05
2.29857e-05
2.26186e-05
2.43232e-05
2.45996e-05
3.32306e-05
3.43379e-05
2.31202e-05
2.2958e-05
2.40414e-05
2.42271e-05
2.27603e-05
2.45352e-05
2.43388e-05
3.32403e-05
3.42816e-05
2.27964e-05
2.43089e-05
2.43626e-05
3.42733e-05
3.43415e-05
3.54584e-05
2.45848e-05
2.49298e-05
2.61282e-05
2.58946e-05
3.4582e-05
3.5183e-05
2.43942e-05
2.46587e-05
2.62743e-05
2.6351e-05
2.48058e-05
2.58148e-05
2.60832e-05
3.45135e-05
3.54118e-05
2.47661e-05
2.6221e-05
2.60651e-05
3.5318e-05
3.58246e-05
3.64948e-05
2.68208e-05
2.65405e-05
2.7929e-05
2.81467e-05
3.54771e-05
3.67111e-05
2.69055e-05
2.67613e-05
2.79058e-05
2.77377e-05
2.65176e-05
2.81872e-05
2.79003e-05
3.56846e-05
3.64083e-05
2.65602e-05
2.77886e-05
2.79472e-05
3.65244e-05
3.66324e-05
3.75024e-05
2.80833e-05
2.83518e-05
2.95146e-05
2.93752e-05
3.69029e-05
3.74313e-05
2.81016e-05
2.82549e-05
2.94182e-05
2.97058e-05
2.83431e-05
2.94409e-05
2.94695e-05
3.66772e-05
3.76553e-05
2.83319e-05
2.96453e-05
2.9411e-05
3.74737e-05
3.78752e-05
3.87624e-05
3.01687e-05
2.99956e-05
3.12574e-05
3.14021e-05
3.77156e-05
3.8767e-05
3.00264e-05
2.9967e-05
3.13703e-05
3.11784e-05
2.98417e-05
3.13046e-05
3.13069e-05
3.78331e-05
3.86296e-05
2.98261e-05
3.12233e-05
3.13531e-05
3.87625e-05
3.89088e-05
3.96919e-05
3.14614e-05
3.15755e-05
3.28123e-05
3.25923e-05
3.89394e-05
3.9614e-05
3.16366e-05
3.17672e-05
3.26967e-05
3.28723e-05
3.17789e-05
3.27414e-05
3.27521e-05
3.89819e-05
3.97906e-05
3.18072e-05
3.29208e-05
3.27616e-05
3.96835e-05
4.00021e-05
4.08103e-05
3.33466e-05
3.32088e-05
3.42762e-05
3.44372e-05
3.99175e-05
4.07754e-05
3.31709e-05
3.30353e-05
3.44326e-05
3.41627e-05
3.30409e-05
3.42414e-05
3.4168e-05
3.98915e-05
4.05625e-05
3.30611e-05
3.40571e-05
3.41898e-05
4.06773e-05
4.09565e-05
4.16509e-05
3.45085e-05
3.45417e-05
3.56586e-05
3.53055e-05
4.08863e-05
4.1496e-05
3.47537e-05
3.46879e-05
3.55977e-05
3.56081e-05
3.45787e-05
3.55315e-05
3.57415e-05
4.09107e-05
4.17211e-05
3.45856e-05
3.5641e-05
3.56589e-05
4.17513e-05
4.18896e-05
4.2535e-05
3.60911e-05
3.59203e-05
3.68878e-05
3.73618e-05
4.18526e-05
4.2914e-05
3.58932e-05
3.58118e-05
3.67922e-05
3.69265e-05
3.61053e-05
3.72934e-05
3.68986e-05
4.18337e-05
4.25993e-05
3.59974e-05
3.68999e-05
3.68494e-05
4.25796e-05
4.26838e-05
4.35173e-05
3.70979e-05
3.75334e-05
3.81478e-05
3.81073e-05
4.30047e-05
4.3223e-05
3.71455e-05
3.73957e-05
3.83822e-05
3.84347e-05
3.71726e-05
3.78281e-05
3.83436e-05
4.29102e-05
4.369e-05
3.71801e-05
3.8397e-05
3.84477e-05
4.36543e-05
4.37636e-05
4.44394e-05
3.85208e-05
3.84396e-05
3.94341e-05
3.9377e-05
4.34379e-05
4.44428e-05
3.87034e-05
3.86088e-05
3.93829e-05
3.92356e-05
3.86115e-05
3.93622e-05
3.91147e-05
4.37911e-05
4.41798e-05
3.86965e-05
3.91515e-05
3.90909e-05
4.41712e-05
4.45983e-05
4.51641e-05
3.97421e-05
3.96323e-05
4.05604e-05
4.03662e-05
4.46245e-05
4.50759e-05
3.96424e-05
3.9594e-05
4.03732e-05
4.0607e-05
3.95015e-05
4.05144e-05
4.08525e-05
4.44093e-05
4.53453e-05
3.94594e-05
4.06726e-05
4.08356e-05
4.55248e-05
4.53017e-05
4.59627e-05
4.07366e-05
4.06144e-05
4.15355e-05
4.16618e-05
4.52253e-05
4.60826e-05
4.05326e-05
4.07935e-05
4.14455e-05
4.14957e-05
4.10356e-05
4.15475e-05
4.14526e-05
4.5498e-05
4.59463e-05
4.10346e-05
4.14947e-05
4.14506e-05
4.58865e-05
4.62213e-05
4.67774e-05
4.19378e-05
4.20564e-05
4.26759e-05
4.2671e-05
4.63489e-05
4.68335e-05
4.19134e-05
4.1882e-05
4.27885e-05
4.26509e-05
4.18404e-05
4.29015e-05
4.28116e-05
4.61588e-05
4.67187e-05
4.18274e-05
4.26825e-05
4.28131e-05
4.68423e-05
4.68112e-05
4.70788e-05
4.27212e-05
4.26972e-05
4.301e-05
4.28923e-05
4.6859e-05
4.69921e-05
4.28451e-05
4.27067e-05
4.30899e-05
4.30697e-05
4.28951e-05
4.30816e-05
4.30229e-05
4.67635e-05
4.71007e-05
4.29042e-05
4.30403e-05
4.3023e-05
4.69323e-05
4.74404e-05
4.90645e-05
4.35316e-05
4.33574e-05
4.52258e-05
4.51998e-05
4.73236e-05
4.90327e-05
4.35712e-05
4.363e-05
4.52703e-05
4.5274e-05
4.32976e-05
4.51677e-05
4.51587e-05
4.74637e-05
4.90729e-05
4.32675e-05
4.52167e-05
4.51252e-05
4.89684e-05
4.92065e-05
4.85986e-05
4.54743e-05
4.5471e-05
4.55021e-05
4.55219e-05
4.91898e-05
4.86275e-05
4.55058e-05
4.55051e-05
4.55145e-05
4.55067e-05
4.54626e-05
4.54895e-05
4.55539e-05
4.92172e-05
4.85981e-05
4.54449e-05
4.55142e-05
4.55554e-05
4.8725e-05
4.84523e-05
4.68487e-05
4.52496e-05
4.52902e-05
4.39378e-05
4.39734e-05
4.84861e-05
4.68651e-05
4.52397e-05
4.52212e-05
4.38961e-05
4.38749e-05
4.53537e-05
4.39112e-05
4.3957e-05
4.84463e-05
4.68027e-05
4.53697e-05
4.3907e-05
4.39819e-05
4.68818e-05
4.68236e-05
4.74428e-05
4.37269e-05
4.37583e-05
4.37999e-05
4.38206e-05
4.68373e-05
4.74368e-05
4.36818e-05
4.36646e-05
4.37563e-05
4.37584e-05
4.37079e-05
4.37485e-05
4.36979e-05
4.67762e-05
4.7418e-05
4.37297e-05
4.37385e-05
4.37087e-05
4.73156e-05
4.79239e-05
5.0915e-05
4.44094e-05
4.44181e-05
4.7529e-05
4.75437e-05
4.79172e-05
5.0923e-05
4.4378e-05
4.44078e-05
4.75344e-05
4.7561e-05
4.42134e-05
4.75366e-05
4.74784e-05
4.79076e-05
5.09319e-05
4.4205e-05
4.75275e-05
4.74632e-05
5.08713e-05
5.15771e-05
5.39264e-05
4.8541e-05
4.85576e-05
5.08984e-05
5.09164e-05
5.15882e-05
5.39453e-05
4.85496e-05
4.85756e-05
5.09063e-05
5.09289e-05
4.85201e-05
5.09295e-05
5.09231e-05
5.15976e-05
5.39517e-05
4.85059e-05
5.09263e-05
5.0914e-05
5.39454e-05
5.42291e-05
5.47319e-05
5.13932e-05
5.14101e-05
5.21575e-05
5.21685e-05
5.42481e-05
5.47463e-05
5.13998e-05
5.14202e-05
5.21597e-05
5.21702e-05
5.1425e-05
5.21843e-05
5.21986e-05
5.42533e-05
5.47454e-05
5.14177e-05
5.21807e-05
5.21965e-05
5.47732e-05
5.47435e-05
5.32492e-05
5.22098e-05
5.22187e-05
5.14955e-05
5.14856e-05
5.47564e-05
5.32445e-05
5.22107e-05
5.2218e-05
5.1483e-05
5.14677e-05
5.22509e-05
5.14947e-05
5.15229e-05
5.47543e-05
5.324e-05
5.22501e-05
5.14959e-05
5.15322e-05
5.32774e-05
5.28752e-05
4.91786e-05
5.06011e-05
5.0591e-05
4.73698e-05
4.73596e-05
5.28699e-05
4.91701e-05
5.05889e-05
5.05763e-05
4.73587e-05
4.73522e-05
5.06195e-05
4.73608e-05
4.73694e-05
5.28657e-05
4.91713e-05
5.06273e-05
4.73649e-05
4.7374e-05
4.9182e-05
4.87011e-05
4.58064e-05
4.62401e-05
4.62304e-05
4.35503e-05
4.3544e-05
4.86933e-05
4.58017e-05
4.62295e-05
4.6225e-05
4.35418e-05
4.35436e-05
4.62364e-05
4.35423e-05
4.3544e-05
4.86945e-05
4.58053e-05
4.62403e-05
4.35452e-05
4.35455e-05
4.58044e-05
4.5664e-05
4.54809e-05
4.30268e-05
4.30216e-05
4.25798e-05
4.25768e-05
4.566e-05
4.54795e-05
4.30191e-05
4.30224e-05
4.25737e-05
4.25792e-05
4.30211e-05
4.25748e-05
4.25765e-05
4.56634e-05
4.54833e-05
4.30219e-05
4.25769e-05
4.25757e-05
4.5481e-05
4.57889e-05
4.806e-05
4.27141e-05
4.27123e-05
4.50455e-05
4.50466e-05
4.57879e-05
4.80599e-05
4.2709e-05
4.27151e-05
4.50432e-05
4.50479e-05
4.27124e-05
4.50452e-05
4.50474e-05
4.57916e-05
4.80617e-05
4.27108e-05
4.50461e-05
4.50451e-05
4.80616e-05
4.85523e-05
5.06367e-05
4.58434e-05
4.58445e-05
4.79826e-05
4.79837e-05
4.85523e-05
5.06366e-05
4.58414e-05
4.5845e-05
4.79814e-05
4.79829e-05
4.58453e-05
4.79829e-05
4.79845e-05
4.85536e-05
5.0637e-05
4.58433e-05
4.79834e-05
4.79831e-05
5.0638e-05
5.10267e-05
5.24193e-05
4.8591e-05
4.8592e-05
5.00255e-05
5.00264e-05
5.10266e-05
5.24191e-05
4.85901e-05
4.85911e-05
5.00251e-05
5.00254e-05
4.8593e-05
5.00264e-05
5.00278e-05
5.10268e-05
5.24193e-05
4.85918e-05
5.00273e-05
5.00272e-05
5.24208e-05
5.26505e-05
5.33561e-05
5.0374e-05
5.03748e-05
5.10973e-05
5.10979e-05
5.26504e-05
5.3356e-05
5.03738e-05
5.03739e-05
5.10973e-05
5.10972e-05
5.03765e-05
5.10988e-05
5.11001e-05
5.26505e-05
5.33562e-05
5.03761e-05
5.10998e-05
5.11001e-05
5.33579e-05
5.34757e-05
5.37834e-05
5.12556e-05
5.12561e-05
5.15707e-05
5.15711e-05
5.34757e-05
5.37835e-05
5.12557e-05
5.12556e-05
5.15707e-05
5.15707e-05
5.12584e-05
5.15726e-05
5.15735e-05
5.34758e-05
5.37836e-05
5.12586e-05
5.15734e-05
5.15737e-05
5.37854e-05
5.38444e-05
5.39591e-05
5.16383e-05
5.16387e-05
5.1766e-05
5.17665e-05
5.38446e-05
5.39594e-05
5.16383e-05
5.16382e-05
5.1766e-05
5.17659e-05
5.16412e-05
5.17682e-05
5.17689e-05
5.38446e-05
5.39593e-05
5.16414e-05
5.17687e-05
5.17691e-05
5.39611e-05
5.39905e-05
5.40126e-05
5.17895e-05
5.179e-05
5.18207e-05
5.18212e-05
5.39908e-05
5.40128e-05
5.17896e-05
5.17893e-05
5.18208e-05
5.18205e-05
5.17924e-05
5.18228e-05
5.18236e-05
5.39906e-05
5.40127e-05
5.17927e-05
5.18235e-05
5.18239e-05
5.40146e-05
5.40316e-05
5.40176e-05
5.18228e-05
5.18233e-05
5.18196e-05
5.18201e-05
5.40319e-05
5.40176e-05
5.18229e-05
5.18225e-05
5.18198e-05
5.18195e-05
5.18257e-05
5.18217e-05
5.18227e-05
5.40317e-05
5.40177e-05
5.1826e-05
5.18225e-05
5.18229e-05
5.40198e-05
5.40314e-05
5.40158e-05
5.18179e-05
5.18184e-05
5.18228e-05
5.18236e-05
5.40314e-05
5.40166e-05
5.18181e-05
5.18178e-05
5.1823e-05
5.18228e-05
5.18209e-05
5.18253e-05
5.18258e-05
5.40315e-05
5.40161e-05
5.18212e-05
5.18257e-05
5.1826e-05
5.40176e-05
5.40381e-05
5.40343e-05
5.18284e-05
5.18291e-05
5.18318e-05
5.18324e-05
5.40388e-05
5.40344e-05
5.18286e-05
5.18283e-05
5.1832e-05
5.18315e-05
5.18313e-05
5.1834e-05
5.18346e-05
5.40383e-05
5.40342e-05
5.18315e-05
5.18345e-05
5.18349e-05
5.40361e-05
5.40485e-05
5.40114e-05
5.18297e-05
5.18301e-05
5.18223e-05
5.18228e-05
5.40485e-05
5.40114e-05
5.18299e-05
5.18293e-05
5.18225e-05
5.18221e-05
5.18325e-05
5.18244e-05
5.18252e-05
5.40483e-05
5.40114e-05
5.18327e-05
5.18251e-05
5.18255e-05
5.40133e-05
5.40269e-05
5.40277e-05
5.18224e-05
5.1823e-05
5.18284e-05
5.1829e-05
5.40271e-05
5.40283e-05
5.18227e-05
5.18224e-05
5.18286e-05
5.18283e-05
5.18254e-05
5.18306e-05
5.18314e-05
5.40271e-05
5.40282e-05
5.18258e-05
5.18313e-05
5.18316e-05
5.403e-05
5.40459e-05
5.40215e-05
5.18289e-05
5.18294e-05
5.18247e-05
5.18251e-05
5.40464e-05
5.40209e-05
5.18291e-05
5.18287e-05
5.18249e-05
5.18244e-05
5.18318e-05
5.18267e-05
5.18274e-05
5.40463e-05
5.40209e-05
5.1832e-05
5.18274e-05
5.18277e-05
5.40226e-05
5.40349e-05
5.40168e-05
5.18241e-05
5.18245e-05
5.18253e-05
5.1826e-05
5.40345e-05
5.40177e-05
5.18244e-05
5.18239e-05
5.18255e-05
5.18253e-05
5.18269e-05
5.18277e-05
5.18284e-05
5.40344e-05
5.40177e-05
5.18272e-05
5.18285e-05
5.18287e-05
5.40195e-05
5.40361e-05
5.40288e-05
5.18268e-05
5.18274e-05
5.18265e-05
5.1827e-05
5.40372e-05
5.40286e-05
5.1827e-05
5.18268e-05
5.18267e-05
5.18263e-05
5.18298e-05
5.18286e-05
5.18293e-05
5.40372e-05
5.40285e-05
5.18301e-05
5.18292e-05
5.18295e-05
5.40302e-05
5.40427e-05
5.40132e-05
5.18259e-05
5.18264e-05
5.18244e-05
5.18251e-05
5.40422e-05
5.40141e-05
5.18262e-05
5.18257e-05
5.18246e-05
5.18243e-05
5.18288e-05
5.18268e-05
5.18275e-05
5.4042e-05
5.4014e-05
5.18289e-05
5.18274e-05
5.18277e-05
5.40157e-05
5.40327e-05
5.40289e-05
5.18258e-05
5.18265e-05
5.18262e-05
5.18267e-05
5.4034e-05
5.40283e-05
5.18261e-05
5.18258e-05
5.18264e-05
5.1826e-05
5.18288e-05
5.18283e-05
5.18292e-05
5.40338e-05
5.40284e-05
5.18291e-05
5.1829e-05
5.18294e-05
5.40305e-05
5.40423e-05
5.40148e-05
5.18258e-05
5.18263e-05
5.18248e-05
5.18256e-05
5.40413e-05
5.40166e-05
5.1826e-05
5.18256e-05
5.1825e-05
5.18248e-05
5.18288e-05
5.18272e-05
5.18278e-05
5.40414e-05
5.40159e-05
5.1829e-05
5.18277e-05
5.18279e-05
5.40173e-05
5.4035e-05
5.40258e-05
5.18258e-05
5.18266e-05
5.1825e-05
5.18256e-05
5.40374e-05
5.40236e-05
5.18261e-05
5.18259e-05
5.18252e-05
5.18249e-05
5.18289e-05
5.18272e-05
5.1828e-05
5.40364e-05
5.40246e-05
5.18289e-05
5.18278e-05
5.18281e-05
5.40271e-05
5.40387e-05
5.40193e-05
5.18255e-05
5.18261e-05
5.18248e-05
5.18256e-05
5.40367e-05
5.40225e-05
5.18257e-05
5.18254e-05
5.1825e-05
5.18248e-05
5.18285e-05
5.18272e-05
5.18278e-05
5.40375e-05
5.40213e-05
5.18286e-05
5.18276e-05
5.18279e-05
5.40224e-05
5.40398e-05
5.40182e-05
5.1826e-05
5.18267e-05
5.18245e-05
5.18251e-05
5.40423e-05
5.40163e-05
5.18262e-05
5.18259e-05
5.18247e-05
5.18243e-05
5.1829e-05
5.18267e-05
5.18275e-05
5.40413e-05
5.40168e-05
5.18291e-05
5.18273e-05
5.18276e-05
5.4019e-05
5.4032e-05
5.40274e-05
5.18259e-05
5.18266e-05
5.18243e-05
5.1825e-05
5.40307e-05
5.40287e-05
5.18261e-05
5.18258e-05
5.18246e-05
5.18243e-05
5.18289e-05
5.18266e-05
5.18274e-05
5.4031e-05
5.40285e-05
5.1829e-05
5.18272e-05
5.18274e-05
5.40301e-05
5.40451e-05
5.4014e-05
5.18264e-05
5.1827e-05
5.18238e-05
5.18246e-05
5.4045e-05
5.40164e-05
5.18268e-05
5.18264e-05
5.1824e-05
5.18238e-05
5.18295e-05
5.18263e-05
5.1827e-05
5.40449e-05
5.40162e-05
5.18295e-05
5.18268e-05
5.18271e-05
5.40173e-05
5.40336e-05
5.40196e-05
5.18268e-05
5.18277e-05
5.18234e-05
5.18241e-05
5.40378e-05
5.40174e-05
5.1827e-05
5.18269e-05
5.18238e-05
5.18235e-05
5.183e-05
5.18258e-05
5.18266e-05
5.40374e-05
5.40173e-05
5.18301e-05
5.18264e-05
5.18267e-05
5.40199e-05
5.40335e-05
5.40269e-05
5.18276e-05
5.18283e-05
5.18234e-05
5.18241e-05
5.4032e-05
5.40276e-05
5.18279e-05
5.18277e-05
5.18236e-05
5.18234e-05
5.18308e-05
5.18258e-05
5.18266e-05
5.4032e-05
5.40272e-05
5.18309e-05
5.18263e-05
5.18267e-05
5.40294e-05
5.40432e-05
5.40165e-05
5.18291e-05
5.18298e-05
5.18209e-05
5.18216e-05
5.40429e-05
5.40181e-05
5.18294e-05
5.18291e-05
5.18211e-05
5.18209e-05
5.18324e-05
5.18232e-05
5.1824e-05
5.40419e-05
5.40196e-05
5.18324e-05
5.18238e-05
5.18241e-05
5.40198e-05
5.40341e-05
5.38397e-05
5.18121e-05
5.18127e-05
5.16597e-05
5.16607e-05
5.40356e-05
5.38412e-05
5.18123e-05
5.18119e-05
5.16615e-05
5.16589e-05
5.1815e-05
5.16642e-05
5.16625e-05
5.40367e-05
5.38412e-05
5.1815e-05
5.16632e-05
5.1664e-05
5.38431e-05
5.36832e-05
5.06474e-05
5.06484e-05
5.36851e-05
5.06494e-05
5.06465e-05
3.95867e-05
3.95857e-05
3.95881e-05
5.06501e-05
5.36849e-05
5.06519e-05
2.09405e-06
3.40313e-07
1.30515e-06
1.30219e-06
9.90318e-08
3.49459e-07
5.06678e-07
6.86725e-07
1.1178e-07
3.25649e-07
7.17011e-07
2.51607e-07
3.64497e-07
7.33586e-07
2.6827e-07
3.01891e-07
4.95107e-06
2.62719e-07
6.63592e-06
1.40107e-05
2.16868e-05
2.89567e-07
4.93389e-06
2.55053e-07
6.61195e-06
6.93001e-07
7.02456e-07
6.88635e-07
6.83098e-07
6.83514e-07
6.93282e-07
6.80187e-07
1.00977e-07
7.38455e-07
3.38678e-07
3.52394e-07
1.008e-07
7.07388e-07
3.3425e-07
1.41091e-05
2.17491e-05
1.14514e-07
4.05424e-07
6.50252e-07
3.38382e-07
1.15096e-07
4.01725e-07
6.36077e-07
2.04305e-06
1.89124e-06
3.48593e-07
2.03196e-06
1.87248e-06
5.03324e-07
9.82635e-06
4.14687e-07
1.24171e-05
3.68858e-05
4.67377e-05
4.94003e-07
9.79369e-06
3.98401e-07
1.2399e-05
6.84704e-07
6.94689e-07
6.81673e-07
6.88791e-07
6.89333e-07