/*--------------------------------*- C++ -*----------------------------------*\
| =========                 |                                                 |
| \\      /  F ield         | OpenFOAM: The Open Source CFD Toolbox           |
|  \\    /   O peration     | Version:  v1906                                 |
|   \\  /    A nd           | Web:      www.OpenFOAM.com                      |
|    \\/     M anipulation  |                                                 |
\*---------------------------------------------------------------------------*/
FoamFile
{
    version     2.0;
    format      ascii;
    class       volScalarField;
    location    "275";
    object      nut;
}
// * * * * * * * * * * * * * * * * * * * * * * * * * * * * * * * * * * * * * //

dimensions      [0 2 -1 0 0 0 0];


internalField   nonuniform List<scalar> 
171728
(
8.87461e-06
2.3573e-06
2.04133e-06
2.27163e-06
8.7101e-06
2.35124e-06
2.01415e-06
2.25167e-06
8.90002e-06
2.35125e-06
2.06848e-06
2.22944e-06
9.0919e-06
2.32817e-06
2.08557e-06
2.2128e-06
9.29163e-06
2.31294e-06
2.25615e-06
2.19868e-06
9.48057e-06
2.30656e-06
3.14848e-06
2.17952e-06
9.68877e-06
2.26854e-06
4.60551e-06
2.15229e-06
9.88926e-06
2.22333e-06
5.47016e-06
2.11785e-06
1.01015e-05
2.18005e-06
4.54593e-06
2.07834e-06
1.03113e-05
2.12495e-06
3.57002e-06
2.02602e-06
1.05394e-05
2.06501e-06
3.07795e-06
1.97061e-06
1.07434e-05
1.99748e-06
2.612e-06
1.9158e-06
1.09637e-05
1.92801e-06
2.03287e-06
1.83737e-06
1.11702e-05
1.85889e-06
1.59778e-06
1.73724e-06
1.13651e-05
1.78147e-06
1.32013e-06
1.6312e-06
1.15637e-05
1.69747e-06
1.18071e-06
1.52777e-06
1.17342e-05
1.61846e-06
1.11843e-06
1.42479e-06
1.18868e-05
1.50537e-06
1.11838e-06
1.35824e-06
1.20275e-05
1.51023e-06
1.24282e-06
1.34237e-06
1.21389e-05
1.72277e-06
1.44716e-06
1.42377e-06
1.22685e-05
1.51058e-06
1.94369e-06
2.03063e-06
1.23357e-05
2.30089e-06
2.90733e-06
2.58873e-06
1.24468e-05
2.43463e-06
3.1733e-06
3.18339e-06
1.24654e-05
3.4233e-06
4.23223e-06
6.5541e-06
1.25775e-05
4.09356e-06
5.74499e-06
8.69739e-06
1.22974e-05
6.22367e-06
6.27678e-06
1.46205e-05
1.25176e-05
6.28267e-06
7.38489e-06
1.52625e-05
1.20587e-05
1.1159e-05
1.13245e-05
3.03873e-05
1.22616e-05
9.21887e-06
1.2268e-05
2.56229e-05
1.15689e-05
2.02593e-05
1.54791e-05
4.88237e-05
1.2062e-05
1.82564e-05
1.80661e-05
4.0468e-05
1.16077e-05
2.10794e-05
2.38332e-05
5.61078e-05
1.17581e-05
2.85622e-05
2.73438e-05
6.10227e-05
1.23462e-05
2.98985e-05
3.26603e-05
6.34806e-05
1.19512e-05
3.92047e-05
3.51097e-05
7.13669e-05
1.37902e-05
3.77364e-05
4.33615e-05
7.57348e-05
1.27783e-05
5.30836e-05
4.50029e-05
8.00492e-05
1.71303e-05
5.48413e-05
5.84929e-05
8.57377e-05
1.50901e-05
5.24592e-05
5.58071e-05
8.50786e-05
2.05728e-05
6.97208e-05
6.83853e-05
9.5323e-05
2.13039e-05
7.18773e-05
7.26824e-05
9.66703e-05
2.36855e-05
7.68757e-05
7.71097e-05
9.9683e-05
2.64398e-05
8.50279e-05
8.39687e-05
0.000104485
3.09726e-05
8.87282e-05
9.03821e-05
0.00010788
3.55267e-05
9.77044e-05
9.64598e-05
0.000112204
3.85766e-05
0.000101134
0.000101208
0.000115142
4.56778e-05
0.000107986
0.000109074
0.000120198
4.95569e-05
0.000113301
0.000112785
0.000122878
5.69163e-05
0.00011765
0.000118391
0.000126751
6.20846e-05
0.00012382
0.000122648
0.000130518
6.80035e-05
0.000129644
0.000128459
0.000133307
7.55776e-05
0.000131085
0.000133674
0.000137796
8.20452e-05
0.000138008
0.000136541
0.000138902
9.02636e-05
0.000141723
0.000143001
0.00014516
9.44273e-05
0.000147579
0.000146946
0.000146254
0.000105996
0.000152964
0.000151529
0.000150474
0.000107207
0.000152766
0.000153678
0.000150211
0.000123788
0.000166119
0.000166319
0.000161192
0.000133177
0.000167621
0.000167747
0.000160985
0.000123766
0.00015705
0.000157049
0.000151126
0.000113365
0.000155949
0.00015588
0.000151629
0.000145031
0.000178517
0.000178498
0.000167809
0.000180205
0.000196919
0.000196916
0.000182423
0.000199123
0.000205043
0.000205019
0.000188115
0.000204656
0.000200999
0.000201003
0.000184035
0.000165961
0.000177593
0.000177612
0.000166376
0.000128874
0.000157839
0.000157849
0.000150574
0.000112188
0.00015299
0.000152996
0.000147996
0.000131263
0.000170052
0.000170048
0.00015973
0.000168872
0.000186411
0.000186404
0.000171074
0.000197543
0.000197685
0.000197678
0.000178856
0.000213501
0.000203448
0.000203443
0.000182801
0.000220857
0.000205997
0.00020599
0.00018455
0.000224063
0.000207047
0.000207038
0.00018525
0.000225067
0.000207296
0.000207288
0.000185463
0.000225157
0.000207263
0.000207255
0.000185469
0.00022528
0.000207323
0.000207313
0.000185458
0.00022532
0.000207346
0.000207337
0.00018555
0.000225269
0.000207288
0.00020728
0.000185411
0.000225295
0.000207333
0.000207324
0.000185518
0.00022528
0.000207303
0.000207294
0.00018547
0.000225287
0.00020732
0.000207312
0.000185464
0.000225285
0.000207316
0.000207306
0.000185516
0.000225284
0.000207314
0.000207305
0.00018544
0.000225284
0.000207315
0.000207306
0.000185516
0.000225282
0.000207314
0.000207305
0.000185455
0.000225281
0.000207312
0.000207303
0.000185495
0.000225281
0.000207315
0.000207305
0.000185489
0.000225281
0.000207313
0.000207304
0.000185445
0.000225281
0.000207315
0.000207306
0.000185532
0.000225281
0.000207317
0.000207308
0.000185462
0.000225282
0.000207318
0.000207309
0.000185449
0.000225283
0.000207325
0.000207315
0.000185523
0.000225249
0.000207241
0.00020723
0.000185504
0.000227023
0.000208348
0.000208341
0.000188725
2.41338e-06
2.54505e-06
2.43398e-06
2.27568e-06
2.46888e-06
2.5432e-06
9.27841e-06
9.27487e-06
9.37429e-06
9.26975e-06
2.55456e-06
2.04346e-06
2.36394e-06
2.30068e-06
2.43517e-06
2.27309e-06
2.41105e-06
2.39894e-06
2.34718e-06
2.27343e-06
2.33141e-06
2.26079e-06
2.25753e-06
2.2754e-06
2.31019e-06
2.40194e-06
2.29691e-06
2.38774e-06
1.7465e-06
2.35067e-06
1.62663e-06
2.35012e-06
2.33111e-06
2.32219e-06
2.01381e-06
2.3067e-06
2.25253e-06
2.39736e-06
2.38969e-06
2.32802e-06
2.25902e-06
2.32052e-06
2.25352e-06
2.25607e-06
2.27989e-06
2.29578e-06
2.38281e-06
2.28885e-06
2.36958e-06
1.6194e-06
2.35379e-06
1.62241e-06
2.32306e-06
2.29119e-06
2.30674e-06
2.05827e-06
2.29381e-06
2.23099e-06
2.37999e-06
2.37773e-06
2.31927e-06
2.2513e-06
2.3092e-06
2.24564e-06
2.26067e-06
2.28097e-06
2.28673e-06
2.36679e-06
2.28052e-06
2.36706e-06
1.62938e-06
2.33501e-06
1.66178e-06
2.28471e-06
2.26146e-06
2.28887e-06
2.08172e-06
2.29346e-06
2.21478e-06
2.35897e-06
2.35312e-06
2.30414e-06
2.24306e-06
2.29239e-06
2.22653e-06
2.26221e-06
2.27142e-06
2.27808e-06
2.36694e-06
2.27014e-06
2.36285e-06
1.67116e-06
2.31508e-06
1.68961e-06
2.25716e-06
2.25695e-06
2.29724e-06
2.15607e-06
2.30408e-06
2.20847e-06
2.33083e-06
2.3228e-06
2.28923e-06
2.22188e-06
2.27327e-06
2.20501e-06
2.25008e-06
2.23688e-06
2.26812e-06
2.36095e-06
2.26377e-06
2.35558e-06
1.69291e-06
2.30994e-06
1.70132e-06
2.26304e-06
2.41991e-06
2.30377e-06
2.84486e-06
2.30035e-06
2.19303e-06
2.30024e-06
2.28708e-06
2.26618e-06
2.19995e-06
2.25124e-06
2.19376e-06
2.2129e-06
2.19656e-06
2.26262e-06
2.35161e-06
2.262e-06
2.33324e-06
1.70386e-06
2.27984e-06
1.71788e-06
2.43538e-06
2.64906e-06
2.29664e-06
4.25135e-06
2.27618e-06
2.16726e-06
2.26468e-06
2.24583e-06
2.24755e-06
2.18978e-06
2.23315e-06
2.17283e-06
2.17538e-06
2.15885e-06
2.25623e-06
2.32876e-06
2.23611e-06
2.31181e-06
1.72645e-06
2.23343e-06
1.75739e-06
2.64814e-06
2.79394e-06
2.26951e-06
5.31832e-06
2.25028e-06
2.1333e-06
2.22365e-06
2.20542e-06
2.22654e-06
2.16871e-06
2.20214e-06
2.1545e-06
2.13577e-06
2.10646e-06
2.23406e-06
2.30533e-06
2.21715e-06
2.27751e-06
1.7686e-06
2.19164e-06
1.8025e-06
2.77252e-06
2.7074e-06
2.24045e-06
4.85099e-06
2.19973e-06
2.09168e-06
2.18357e-06
2.15072e-06
2.19194e-06
2.14692e-06
2.15928e-06
2.12937e-06
2.08392e-06
2.057e-06
2.20695e-06
2.26497e-06
2.16769e-06
2.22612e-06
1.81363e-06
2.13962e-06
1.85492e-06
2.63579e-06
2.469e-06
2.18429e-06
3.77178e-06
2.14566e-06
2.03714e-06
2.13598e-06
2.07996e-06
2.14808e-06
2.1248e-06
2.10929e-06
2.12201e-06
2.03981e-06
1.99719e-06
2.16057e-06
2.21371e-06
2.13609e-06
2.16704e-06
1.86871e-06
2.08173e-06
1.89556e-06
2.41439e-06
2.31269e-06
2.13464e-06
3.17172e-06
2.10825e-06
1.98022e-06
2.06656e-06
1.98904e-06
2.09693e-06
2.11651e-06
2.05401e-06
2.08121e-06
1.98534e-06
1.92445e-06
2.12583e-06
2.14908e-06
2.07636e-06
2.10056e-06
1.89897e-06
2.01352e-06
1.90152e-06
2.28794e-06
2.14181e-06
2.09631e-06
2.74558e-06
2.06154e-06
1.92872e-06
1.97209e-06
1.87853e-06
2.03849e-06
2.06636e-06
1.98838e-06
2.00435e-06
1.90894e-06
1.82753e-06
2.05765e-06
2.0826e-06
1.98754e-06
2.02205e-06
1.90095e-06
1.94384e-06
1.88364e-06
2.11708e-06
1.94185e-06
2.04627e-06
2.16933e-06
1.99391e-06
1.85483e-06
1.85766e-06
1.75785e-06
1.97196e-06
1.98655e-06
1.91607e-06
1.91717e-06
1.80784e-06
1.72548e-06
1.96595e-06
2.00047e-06
1.91218e-06
1.93299e-06
1.87481e-06
1.8781e-06
1.85039e-06
1.91348e-06
1.74903e-06
1.97296e-06
1.68936e-06
1.90828e-06
1.75996e-06
1.73435e-06
1.63793e-06
1.89691e-06
1.89156e-06
1.82455e-06
1.82e-06
1.70163e-06
1.62309e-06
1.89565e-06
1.90876e-06
1.84315e-06
1.83365e-06
1.8404e-06
1.80204e-06
1.80715e-06
1.71992e-06
1.56352e-06
1.88462e-06
1.38042e-06
1.81215e-06
1.65729e-06
1.60681e-06
1.53889e-06
1.80131e-06
1.79932e-06
1.73188e-06
1.74139e-06
1.59471e-06
1.51496e-06
1.82602e-06
1.80672e-06
1.77586e-06
1.73416e-06
1.79262e-06
1.71955e-06
1.74461e-06
1.53256e-06
1.41349e-06
1.78654e-06
1.21071e-06
1.71542e-06
1.55509e-06
1.50487e-06
1.46074e-06
1.70484e-06
1.72455e-06
1.65296e-06
1.65383e-06
1.48546e-06
1.41164e-06
1.76037e-06
1.71129e-06
1.72915e-06
1.63589e-06
1.72421e-06
1.62208e-06
1.6696e-06
1.38436e-06
1.29482e-06
1.69118e-06
1.12857e-06
1.62549e-06
1.44811e-06
1.43548e-06
1.36823e-06
1.62217e-06
1.64576e-06
1.57046e-06
1.55052e-06
1.38321e-06
1.31822e-06
1.71292e-06
1.62654e-06
1.65561e-06
1.54343e-06
1.65205e-06
1.52589e-06
1.61864e-06
1.27604e-06
1.20732e-06
1.60109e-06
1.10228e-06
1.56113e-06
1.36491e-06
1.36597e-06
1.36975e-06
1.56446e-06
1.53377e-06
1.53671e-06
1.58773e-06
1.26717e-06
1.39822e-06
1.64491e-06
1.54521e-06
1.5772e-06
1.53809e-06
1.60659e-06
1.56428e-06
1.58576e-06
1.18563e-06
1.26307e-06
1.54888e-06
1.20141e-06
1.52451e-06
1.32378e-06
1.35602e-06
1.47843e-06
1.5246e-06
1.53356e-06
1.59998e-06
1.62841e-06
1.3595e-06
1.48925e-06
1.54122e-06
1.53012e-06
1.58317e-06
1.56663e-06
1.61066e-06
1.58229e-06
1.60166e-06
1.25706e-06
1.35317e-06
1.54721e-06
1.37201e-06
1.53721e-06
1.4315e-06
1.52011e-06
1.66302e-06
1.57205e-06
1.75964e-06
1.7169e-06
1.6585e-06
1.78436e-06
1.51175e-06
1.54951e-06
1.59562e-06
1.6601e-06
1.70762e-06
1.62971e-06
1.62443e-06
1.84933e-06
1.38837e-06
1.74205e-06
1.5534e-06
1.88551e-06
1.75956e-06
1.94128e-06
1.93357e-06
2.26678e-06
1.79941e-06
1.54124e-06
1.95786e-06
2.17357e-06
1.35069e-06
3.19409e-06
1.72707e-06
1.77929e-06
1.90821e-06
1.90558e-06
1.83592e-06
2.14269e-06
2.06889e-06
1.77348e-06
2.46718e-06
1.74235e-06
2.54923e-06
1.9936e-06
2.09876e-06
2.34791e-06
3.15314e-06
2.05539e-06
2.33535e-06
2.20742e-06
2.22805e-06
3.78804e-06
3.21387e-06
2.08035e-06
2.0836e-06
2.11113e-06
2.40165e-06
2.27709e-06
2.24925e-06
2.34162e-06
2.50739e-06
4.23838e-06
2.14051e-06
2.95756e-06
2.31223e-06
3.36361e-06
3.34477e-06
6.7698e-06
2.39853e-06
2.44824e-06
3.54293e-06
3.133e-06
3.07162e-06
6.25252e-06
2.15991e-06
2.41799e-06
3.52065e-06
3.44159e-06
2.54914e-06
3.19855e-06
3.2333e-06
4.30058e-06
6.09828e-06
2.48891e-06
4.36803e-06
3.15496e-06
6.40735e-06
7.14735e-06
5.66584e-06
3.54889e-06
3.2336e-06
3.5974e-06
4.11274e-06
6.34889e-06
7.98058e-06
3.54677e-06
3.45499e-06
3.62035e-06
3.55139e-06
3.49116e-06
3.79584e-06
4.04481e-06
6.77949e-06
6.17917e-06
3.43426e-06
4.87648e-06
3.8289e-06
8.3629e-06
7.29966e-06
1.38097e-05
4.64891e-06
4.21369e-06
5.71419e-06
5.42917e-06
8.4018e-06
1.30911e-05
4.59331e-06
4.63365e-06
5.30887e-06
6.02774e-06
4.00326e-06
5.68362e-06
6.03063e-06
8.40421e-06
1.61494e-05
3.92446e-06
6.57165e-06
5.71357e-06
1.22108e-05
1.32589e-05
1.64108e-05
5.41659e-06
6.20263e-06
6.81188e-06
6.40589e-06
1.43638e-05
1.51049e-05
5.10512e-06
5.84532e-06
6.68719e-06
5.85557e-06
6.7568e-06
6.1423e-06
6.50367e-06
1.57133e-05
1.10955e-05
6.33797e-06
6.33964e-06
6.26248e-06
1.62036e-05
2.07274e-05
2.68498e-05
8.51864e-06
6.43381e-06
9.60775e-06
1.10387e-05
1.44296e-05
3.09005e-05
7.96509e-06
6.98453e-06
9.87014e-06
9.38368e-06
6.36318e-06
1.08585e-05
1.06534e-05
1.3802e-05
2.87848e-05
6.16674e-06
1.03762e-05
1.05083e-05
2.76769e-05
2.62381e-05
2.66851e-05
9.21124e-06
1.13531e-05
1.11205e-05
9.24306e-06
3.18891e-05
1.99619e-05
9.59662e-06
1.0086e-05
1.0878e-05
1.14401e-05
1.11803e-05
9.14247e-06
1.01426e-05
2.97698e-05
2.9684e-05
1.13546e-05
1.24842e-05
1.04587e-05
2.72301e-05
3.20755e-05
3.95232e-05
1.33374e-05
9.00614e-06
1.48647e-05
1.96212e-05
1.80362e-05
5.68283e-05
1.30213e-05
1.1507e-05
1.44174e-05
1.42251e-05
1.04713e-05
1.93683e-05
1.73141e-05
3.07521e-05
3.52314e-05
1.01887e-05
1.37656e-05
1.66716e-05
4.64358e-05
3.85949e-05
4.39369e-05
1.43405e-05
2.08399e-05
1.82263e-05
1.95542e-05
5.94908e-05
4.57436e-05
1.39154e-05
1.59306e-05
1.82576e-05
1.78134e-05
1.79994e-05
1.88959e-05
1.66908e-05
3.76138e-05
4.63446e-05
1.77884e-05
1.8377e-05
1.68575e-05
4.20691e-05
4.90543e-05
5.29967e-05
2.06752e-05
1.89049e-05
2.11232e-05
1.80805e-05
4.44246e-05
4.9422e-05
2.06748e-05
1.74609e-05
2.1376e-05
2.15192e-05
1.58801e-05
1.93462e-05
2.11852e-05
4.62306e-05
4.98317e-05
1.60929e-05
2.06753e-05
2.16391e-05
5.10774e-05
5.2281e-05
5.76761e-05
2.12378e-05
2.03993e-05
2.60116e-05
2.85487e-05
5.07103e-05
6.06346e-05
2.11899e-05
2.43693e-05
2.48149e-05
2.74594e-05
2.47566e-05
2.75418e-05
2.8202e-05
5.30784e-05
6.07443e-05
2.49684e-05
2.78522e-05
2.75781e-05
6.10599e-05
6.14072e-05
6.42895e-05
2.75917e-05
2.93814e-05
3.13342e-05
2.8298e-05
6.28184e-05
6.24872e-05
2.67181e-05
2.69024e-05
3.23487e-05
2.94788e-05
2.76655e-05
2.8714e-05
3.01678e-05
6.06549e-05
6.15142e-05
2.70081e-05
2.92455e-05
3.05251e-05
6.12306e-05
6.4375e-05
6.99477e-05
3.1085e-05
2.89745e-05
3.39969e-05
3.77093e-05
6.33235e-05
7.06254e-05
3.26657e-05
3.2849e-05
3.2922e-05
3.51197e-05
3.28482e-05
3.76106e-05
3.38203e-05
6.41387e-05
7.11368e-05
3.28677e-05
3.50697e-05
3.3424e-05
7.0187e-05
7.14116e-05
7.38556e-05
3.72617e-05
3.95987e-05
4.30309e-05
3.88235e-05
7.13313e-05
7.13064e-05
3.58586e-05
3.53158e-05
4.29022e-05
4.25536e-05
3.4752e-05
3.81234e-05
4.34477e-05
7.18833e-05
7.35907e-05
3.48624e-05
4.23019e-05
4.37941e-05
7.50122e-05
7.42802e-05
7.90085e-05
4.26723e-05
3.82127e-05
4.2697e-05
4.88915e-05
7.22003e-05
8.33031e-05
4.29427e-05
4.35263e-05
4.2761e-05
4.26371e-05
4.44541e-05
4.93336e-05
4.32659e-05
7.40112e-05
7.81491e-05
4.47701e-05
4.25657e-05
4.34353e-05
7.84538e-05
8.08527e-05
8.4937e-05
4.70349e-05
5.29432e-05
5.67133e-05
5.62145e-05
8.48925e-05
8.32738e-05
4.65777e-05
4.49779e-05
5.63777e-05
5.67852e-05
4.47274e-05
5.57655e-05
5.63341e-05
8.05705e-05
8.62026e-05
4.44376e-05
5.68821e-05
5.60871e-05
8.53945e-05
8.49147e-05
8.44683e-05
5.70106e-05
5.53521e-05
5.44996e-05
5.14694e-05
8.27045e-05
8.32578e-05
5.69313e-05
5.84389e-05
5.45514e-05
5.69017e-05
5.7947e-05
5.09783e-05
5.63649e-05
8.62993e-05
8.44134e-05
5.77517e-05
5.68898e-05
5.62004e-05
8.45512e-05
8.57391e-05
9.43645e-05
5.47216e-05
5.26092e-05
6.6647e-05
6.75891e-05
8.55755e-05
9.49286e-05
5.43352e-05
5.58359e-05
6.66857e-05
6.41056e-05
5.53788e-05
6.79296e-05
6.47474e-05
8.48758e-05
9.34716e-05
5.52882e-05
6.37793e-05
6.47167e-05
9.36778e-05
9.53114e-05
9.55938e-05
6.94307e-05
6.90482e-05
7.13302e-05
7.19884e-05
9.55194e-05
9.55918e-05
6.99211e-05
6.85477e-05
7.10276e-05
7.26974e-05
6.84686e-05
7.11849e-05
7.23699e-05
9.53369e-05
9.67741e-05
6.85347e-05
7.3285e-05
7.26283e-05
9.65974e-05
9.57531e-05
9.92745e-05
7.11653e-05
7.29711e-05
7.52197e-05
7.39337e-05
9.60058e-05
9.87609e-05
7.04252e-05
7.21704e-05
7.65467e-05
7.54429e-05
7.27611e-05
7.49046e-05
7.52411e-05
9.67062e-05
9.83934e-05
7.2587e-05
7.46178e-05
7.49073e-05
9.85595e-05
0.000100644
0.000103073
7.79739e-05
7.57273e-05
8.28711e-05
8.42776e-05
9.97179e-05
0.000104103
7.90822e-05
7.78788e-05
8.1201e-05
8.1981e-05
7.68278e-05
8.39925e-05
8.2653e-05
9.97125e-05
0.000103758
7.69698e-05
8.24543e-05
8.28995e-05
0.000103706
0.000103479
0.000107597
8.31515e-05
8.52638e-05
8.82723e-05
8.70327e-05
0.000104821
0.000106281
8.18554e-05
8.32408e-05
8.91536e-05
8.99776e-05
8.43086e-05
8.67184e-05
8.84982e-05
0.00010439
0.000107616
8.4157e-05
8.94064e-05
8.83127e-05
0.000107108
0.000109013
0.000111471
9.13968e-05
8.96045e-05
9.54239e-05
9.6515e-05
0.000107154
0.0001124
9.19961e-05
9.14541e-05
9.52983e-05
9.37479e-05
8.99173e-05
9.64168e-05
9.48237e-05
0.000108481
0.00011079
9.01098e-05
9.39247e-05
9.52233e-05
0.000111458
0.000111608
0.000114342
9.51234e-05
9.67509e-05
9.97584e-05
9.9073e-05
0.000112927
0.000114194
9.52694e-05
9.56409e-05
9.92415e-05
0.000101476
9.64365e-05
9.97197e-05
9.99967e-05
0.000111626
0.000115519
9.6491e-05
0.000101324
9.96132e-05
0.000114458
0.000115765
0.000119409
0.000102727
0.00010167
0.000106766
0.000107712
0.000115094
0.000119497
0.000101806
0.000102001
0.000107239
0.000105725
0.000101054
0.000106774
0.000106636
0.000115914
0.000118471
0.000100909
0.000105826
0.000106924
0.000119259
0.000119669
0.000122291
0.000106885
0.000107808
0.00011168
0.000110327
0.000119916
0.000121963
0.000107864
0.000108332
0.000110997
0.000112746
0.00010861
0.000111472
0.000111821
0.000119827
0.000123261
0.000108797
0.00011326
0.000111891
0.000122517
0.00012345
0.000126801
0.000114107
0.000113081
0.000117463
0.000118609
0.000123062
0.000126751
0.000112896
0.000112753
0.000118128
0.000116304
0.000112578
0.000117324
0.000116455
0.000123314
0.000125158
0.000112724
0.000115645
0.000116658
0.000125844
0.000127112
0.000129551
0.000117928
0.000118422
0.000122129
0.000119545
0.000126879
0.000128363
0.000119321
0.000118674
0.000122057
0.000122109
0.000118044
0.000121025
0.000122619
0.000126516
0.000129992
0.000118172
0.000122387
0.000122214
0.00012998
0.000130379
0.000132822
0.000124049
0.000122302
0.000126866
0.000129511
0.000129739
0.000134915
0.000123046
0.000122438
0.000126016
0.000126444
0.0001241
0.000129652
0.000126639
0.000130129
0.000132701
0.000123507
0.000126376
0.00012623
0.000132762
0.000133133
0.00013633
0.000127307
0.000130032
0.000131282
0.000131297
0.000135077
0.000135035
0.000127309
0.000128588
0.00013282
0.000133349
0.000127437
0.000129774
0.000132577
0.000133924
0.000137495
0.000127354
0.000133212
0.000133209
0.000137109
0.000137232
0.000140087
0.000132902
0.000132605
0.000136659
0.00013664
0.000135645
0.000140194
0.000134268
0.000133839
0.000136744
0.000135503
0.000133711
0.000136266
0.000134523
0.000137684
0.000138627
0.000134284
0.000135
0.000134463
0.000138485
0.000140565
0.000142825
0.000137983
0.000137678
0.000141521
0.000140455
0.000140834
0.000142402
0.000137748
0.000137025
0.000140625
0.00014182
0.000136056
0.000141395
0.000143078
0.000139381
0.000143698
0.000135856
0.000142106
0.000142948
0.000144551
0.00014318
0.00014588
0.000142053
0.000141341
0.000145175
0.000146163
0.000142758
0.000146483
0.000140966
0.000142509
0.00014455
0.000145136
0.000143919
0.000145152
0.000144823
0.000144215
0.000145949
0.000143889
0.000145142
0.000144804
0.00014574
0.000146976
0.000149993
0.000147302
0.000148346
0.000151427
0.000151715
0.000147645
0.000150327
0.000147051
0.000147116
0.000152057
0.000151234
0.000146734
0.000152805
0.000152271
0.000146763
0.000149603
0.000146634
0.000151414
0.00015225
0.000150383
0.000149906
0.000149908
0.000151397
0.000151517
0.000151088
0.000150425
0.000150207
0.000149464
0.00015212
0.000151213
0.000151578
0.000151292
0.000152597
0.000151797
0.000151543
0.000149551
0.000149948
0.000152641
0.000151281
0.000151599
0.00014949
0.000151319
0.000160728
0.000153728
0.000152576
0.000164493
0.000164162
0.00015066
0.000160415
0.000153948
0.000154216
0.000164804
0.000164707
0.000152421
0.00016407
0.00016399
0.000151379
0.000160693
0.000152276
0.00016435
0.000163753
0.00016006
0.000161581
0.000161206
0.000166395
0.000166202
0.000168705
0.000168609
0.000161355
0.000161247
0.000166626
0.000166499
0.000168847
0.000168696
0.000166247
0.000168526
0.000168945
0.000161562
0.000161213
0.000166114
0.000168722
0.000168931
0.000161765
0.00016033
0.000151549
0.000167662
0.000167723
0.000159043
0.000159116
0.000160411
0.000151613
0.000167646
0.000167426
0.000158792
0.000158559
0.00016833
0.000158829
0.000159262
0.000160315
0.00015133
0.000168427
0.00015884
0.000159451
0.000151826
0.000150901
0.000150781
0.000157321
0.000157383
0.000154066
0.000154119
0.000150962
0.000150742
0.000157037
0.00015683
0.000153754
0.00015367
0.00015731
0.000153688
0.000153512
0.000150673
0.000150628
0.000157485
0.000153663
0.000153645
0.000150172
0.000152325
0.000165109
0.000156399
0.000156377
0.000172711
0.000172745
0.000152279
0.000165132
0.000156156
0.000156271
0.000172719
0.000172844
0.000155127
0.000172679
0.000172273
0.000152214
0.00016517
0.000155131
0.000172647
0.000172217
0.00016483
0.000168014
0.000180706
0.000178469
0.000178523
0.000193242
0.000193335
0.000168055
0.000180802
0.000178507
0.000178638
0.000193299
0.000193432
0.000178223
0.000193414
0.000193324
0.000168097
0.000180833
0.000178167
0.000193413
0.000193286
0.000180753
0.000182343
0.000187678
0.000196733
0.000196828
0.000203346
0.000203435
0.000182444
0.000187779
0.000196788
0.000196913
0.000203394
0.000203474
0.000196876
0.000203552
0.000203601
0.00018247
0.000187773
0.000196846
0.00020353
0.000203592
0.000187868
0.000187916
0.000185761
0.000204849
0.000204927
0.000205275
0.000205221
0.000188009
0.000185758
0.00020489
0.000204948
0.000205222
0.000205102
0.000205116
0.000205304
0.000205484
0.000187996
0.000185717
0.000205116
0.000205299
0.000205559
0.00018592
0.000183903
0.000169102
0.000200988
0.000200932
0.000184057
0.000183995
0.000183895
0.000169069
0.000200937
0.000200832
0.000184011
0.000183938
0.000201137
0.00018402
0.000184067
0.000183857
0.000169059
0.000201201
0.000184038
0.000184109
0.000169122
0.000166364
0.000151641
0.000177633
0.000177573
0.000161348
0.000161307
0.000166334
0.000151623
0.000177589
0.000177529
0.000161314
0.000161295
0.000177617
0.000161312
0.000161306
0.000166324
0.000151628
0.000177654
0.000161324
0.000161328
0.000151627
0.000150587
0.000147217
0.000157867
0.000157834
0.000153391
0.000153366
0.000150573
0.000147216
0.000157838
0.000157829
0.000153366
0.000153374
0.000157829
0.00015337
0.00015336
0.000150577
0.000147224
0.000157846
0.000153378
0.000153371
0.000147211
0.000147997
0.000157747
0.000153001
0.000152985
0.000165494
0.000165497
0.000147998
0.000157752
0.000152983
0.000152997
0.000165493
0.000165502
0.000152981
0.000165506
0.000165499
0.000148006
0.000157752
0.000152986
0.000165505
0.000165499
0.00015775
0.000159728
0.000169458
0.00017004
0.000170043
0.00018267
0.000182672
0.000159734
0.000169464
0.000170042
0.000170043
0.000182676
0.000182663
0.000170045
0.000182687
0.000182673
0.000159731
0.000169456
0.000170047
0.00018268
0.000182679
0.000169458
0.000171074
0.000177967
0.000186393
0.000186395
0.000195418
0.000195418
0.00017108
0.000177973
0.000186401
0.000186384
0.000195431
0.000195407
0.000186397
0.000195441
0.000195423
0.000171071
0.000177963
0.000186404
0.000195435
0.000195434
0.000177968
0.000178854
0.000182435
0.000197661
0.000197661
0.000202379
0.000202377
0.000178861
0.000182442
0.000197675
0.00019765
0.000202395
0.000202367
0.000197667
0.000202406
0.000202386
0.00017885
0.000182431
0.00019768
0.0002024
0.000202402
0.000182438
0.000182799
0.000184455
0.00020342
0.000203418
0.000205511
0.000205509
0.000182805
0.000184462
0.000203437
0.000203408
0.000205528
0.000205499
0.000203428
0.000205542
0.000205519
0.000182795
0.000184452
0.000203445
0.000205535
0.000205536
0.000184458
0.000184546
0.000185298
0.000205966
0.000205963
0.000206847
0.000206844
0.000184554
0.000185307
0.000205983
0.000205953
0.000206863
0.000206833
0.000205974
0.000206879
0.000206854
0.000184543
0.000185295
0.000205991
0.00020687
0.000206872
0.000185302
0.000185247
0.000185577
0.000207014
0.000207012
0.000207246
0.000207244
0.000185255
0.000185586
0.000207031
0.000207001
0.000207264
0.000207233
0.000207022
0.000207279
0.000207254
0.000185244
0.000185573
0.00020704
0.000207271
0.000207273
0.00018558
0.000185459
0.000185609
0.000207263
0.000207261
0.000207245
0.000207242
0.000185468
0.000185617
0.000207281
0.00020725
0.000207263
0.000207232
0.000207272
0.000207277
0.000207254
0.000185456
0.000185605
0.00020729
0.00020727
0.000207272
0.000185613
0.000185464
0.00018555
0.00020723
0.000207228
0.000207248
0.000207247
0.000185471
0.000185561
0.000207248
0.000207217
0.000207266
0.000207236
0.000207239
0.000207283
0.000207256
0.00018546
0.000185547
0.000207257
0.000207273
0.000207274
0.000185552
0.000185455
0.000185685
0.000207289
0.000207288
0.000207326
0.000207324
0.000185466
0.000185693
0.000207307
0.000207276
0.000207344
0.000207312
0.000207297
0.000207359
0.000207333
0.000185452
0.00018568
0.000207314
0.00020735
0.000207351
0.000185688
0.000185547
0.000185548
0.000207314
0.000207311
0.000207258
0.000207256
0.000185554
0.000185554
0.000207332
0.000207299
0.000207276
0.000207244
0.000207321
0.000207291
0.000207266
0.000185541
0.000185543
0.000207339
0.000207282
0.000207284
0.000185551
0.000185408
0.000185627
0.000207255
0.000207253
0.000207295
0.000207294
0.000185415
0.000185638
0.000207273
0.000207242
0.000207313
0.000207282
0.000207263
0.000207329
0.000207303
0.000185404
0.000185626
0.000207282
0.00020732
0.000207322
0.000185633
0.000185512
0.000185619
0.0002073
0.000207298
0.000207276
0.000207273
0.000185523
0.000185623
0.000207318
0.000207287
0.000207294
0.000207262
0.000207308
0.000207308
0.000207282
0.00018551
0.000185611
0.000207326
0.000207299
0.0002073
0.000185617
0.000185471
0.000185567
0.00020727
0.000207267
0.000207276
0.000207275
0.000185475
0.000185579
0.000207288
0.000207257
0.000207294
0.000207264
0.000207277
0.00020731
0.000207285
0.000185463
0.000185567
0.000207295
0.000207303
0.000207304
0.000185574
0.000185455
0.000185657
0.000207286
0.000207285
0.000207287
0.000207285
0.000185468
0.000185663
0.000207304
0.000207274
0.000207305
0.000207274
0.000207295
0.00020732
0.000207294
0.000185456
0.000185651
0.000207313
0.000207311
0.000207312
0.000185658
0.000185517
0.000185546
0.000207283
0.00020728
0.000207271
0.00020727
0.000185521
0.000185557
0.000207301
0.000207269
0.000207289
0.000207258
0.00020729
0.000207306
0.00020728
0.000185509
0.000185545
0.000207307
0.000207297
0.000207298
0.000185552
0.000185432
0.000185662
0.000207279
0.000207279
0.000207287
0.000207284
0.000185446
0.000185666
0.000207298
0.000207267
0.000207305
0.000207273
0.000207288
0.000207319
0.000207294
0.000185434
0.000185654
0.000207307
0.000207311
0.000207313
0.000185663
0.000185516
0.000185557
0.000207282
0.00020728
0.000207275
0.000207275
0.000185517
0.000185574
0.0002073
0.000207269
0.000207293
0.000207263
0.00020729
0.00020731
0.000207284
0.000185506
0.000185558
0.000207308
0.0002073
0.000207301
0.000185563
0.000185448
0.000185645
0.00020728
0.00020728
0.000207279
0.000207277
0.000185469
0.000185641
0.000207298
0.000207268
0.000207297
0.000207266
0.000207288
0.000207312
0.000207287
0.000185452
0.000185633
0.000207306
0.000207303
0.000207304
0.000185645
0.000185495
0.000185583
0.000207279
0.000207277
0.000207277
0.000207277
0.000185489
0.00018561
0.000207296
0.000207265
0.000207295
0.000207265
0.000207287
0.000207312
0.000207286
0.000185483
0.000185591
0.000207304
0.000207302
0.000207303
0.000185594
0.000185479
0.000185599
0.000207281
0.00020728
0.000207277
0.000207275
0.000185503
0.000185591
0.000207299
0.000207268
0.000207295
0.000207263
0.000207289
0.00020731
0.000207285
0.000185486
0.000185583
0.000207306
0.000207301
0.000207302
0.000185594
0.00018545
0.000185643
0.000207279
0.000207278
0.000207277
0.000207276
0.000185443
0.000185663
0.000207297
0.000207266
0.000207295
0.000207264
0.000207288
0.000207311
0.000207285
0.000185435
0.000185649
0.000207305
0.000207302
0.000207303
0.000185653
0.000185528
0.000185555
0.000207282
0.00020728
0.000207275
0.000207275
0.000185538
0.000185574
0.0002073
0.000207269
0.000207293
0.000207263
0.00020729
0.00020731
0.000207284
0.000185526
0.000185561
0.000207307
0.000207301
0.000207302
0.000185564
0.000185443
0.000185607
0.000207283
0.000207282
0.000207275
0.000207274
0.000185474
0.000185597
0.0002073
0.00020727
0.000207294
0.000207263
0.000207292
0.000207309
0.000207284
0.000185461
0.000185584
0.000207309
0.0002073
0.000207302
0.000185597
0.000185457
0.000185648
0.000207284
0.000207283
0.000207277
0.000207276
0.00018545
0.000185661
0.000207302
0.000207272
0.000207295
0.000207264
0.000207293
0.000207312
0.000207287
0.000185438
0.000185647
0.000207311
0.000207302
0.000207305
0.000185654
0.000185521
0.000185599
0.00020729
0.000207289
0.000207327
0.000207327
0.000185526
0.000185617
0.000207308
0.000207277
0.000207346
0.000207316
0.0002073
0.000207362
0.000207338
0.000185509
0.000185615
0.000207317
0.000207354
0.000207356
0.000185613
0.000185492
0.000186898
0.000207206
0.000207205
0.000209785
0.000209788
0.000185509
0.000186909
0.000207225
0.000207192
0.000209804
0.00020978
0.000207213
0.000209815
0.000209796
0.000185508
0.000186904
0.000207232
0.000209808
0.000209814
0.000186913
0.000188705
0.00020832
0.000208323
0.000188718
0.000208337
0.000208316
0.000227029
0.000227028
0.000227037
0.000208332
0.000188714
0.000208347
3.01234e-05
3.49272e-06
1.86628e-05
1.85991e-05
4.69667e-07
2.50375e-06
1.93629e-06
9.68967e-06
7.12023e-07
2.28219e-06
9.89654e-06
1.42318e-06
2.28167e-06
2.07301e-06
1.75755e-06
1.11109e-06
1.34835e-05
1.05716e-06
1.52677e-05
1.0914e-05
1.31967e-05
1.02062e-06
1.34596e-05
9.65893e-07
1.52387e-05
8.87178e-06
8.96619e-06
8.87586e-06
8.67241e-06
8.67068e-06
8.75875e-06
8.71499e-06
4.96294e-07
5.61799e-07
3.7999e-06
2.35232e-06
4.81496e-07
6.87375e-07
3.75623e-06
1.09889e-05
1.32159e-05
7.98548e-07
3.69608e-06
4.50319e-07
2.02711e-06
7.86982e-07
3.64962e-06
5.79644e-07
1.63813e-06
1.49411e-06
2.26504e-06
1.86448e-06
1.71317e-06
1.36939e-06
1.85571e-05
1.27547e-06
2.08622e-05
1.71978e-05
1.9358e-05
1.3371e-06
1.85256e-05
1.2092e-06
2.0844e-05
8.71249e-06
8.79915e-06
8.75703e-06