/*--------------------------------*- C++ -*----------------------------------*\
| =========                 |                                                 |
| \\      /  F ield         | OpenFOAM: The Open Source CFD Toolbox           |
|  \\    /   O peration     | Version:  v1906                                 |
|   \\  /    A nd           | Web:      www.OpenFOAM.com                      |
|    \\/     M anipulation  |                                                 |
\*---------------------------------------------------------------------------*/
FoamFile
{
    version     2.0;
    format      ascii;
    class       volScalarField;
    location    "275";
    object      p;
}
// * * * * * * * * * * * * * * * * * * * * * * * * * * * * * * * * * * * * * //

dimensions      [0 2 -2 0 0 0 0];


internalField   nonuniform List<scalar> 
171728
(
0.00352871
0.00352766
0.00352768
0.00352838
0.00349311
0.00349166
0.00349167
0.00349453
0.00345502
0.003453
0.00345303
0.00345532
0.00341085
0.00340914
0.00340921
0.00341138
0.00336249
0.00336096
0.00336103
0.00336335
0.00331376
0.00331234
0.00331231
0.00331472
0.00326581
0.00326454
0.00326448
0.00326689
0.00321848
0.00321733
0.00321734
0.00321971
0.00317208
0.00317105
0.00317101
0.00317347
0.00312678
0.00312585
0.00312584
0.00312825
0.00308237
0.00308155
0.0030815
0.00308397
0.00303868
0.00303797
0.00303792
0.00304038
0.00299556
0.00299499
0.00299502
0.00299737
0.00295286
0.00295242
0.00295225
0.00295469
0.00291047
0.00291008
0.00291002
0.00291242
0.00286841
0.00286818
0.00286812
0.00287038
0.00282671
0.00282656
0.00282655
0.00282865
0.00278533
0.00278514
0.00278528
0.00278731
0.00274428
0.00274385
0.00274424
0.00274633
0.00270364
0.00270359
0.00270366
0.00270558
0.00266332
0.00266308
0.00266332
0.00266503
0.00262333
0.00262333
0.00262315
0.00262514
0.00258365
0.00258364
0.00258329
0.00258516
0.0025441
0.00254411
0.00254395
0.00254573
0.00250488
0.00250493
0.00250516
0.00250658
0.00246586
0.00246593
0.00246574
0.00246807
0.00242716
0.00242738
0.00242744
0.00242882
0.00238858
0.00238862
0.00238868
0.00239095
0.00235033
0.00235081
0.00235045
0.00235217
0.00231203
0.00231206
0.00231231
0.00231441
0.00227409
0.00227429
0.00227435
0.00227591
0.00223629
0.00223675
0.00223667
0.00223895
0.00219858
0.00219881
0.00219883
0.0022007
0.002161
0.00216147
0.00216147
0.00216346
0.00212376
0.00212393
0.00212401
0.00212589
0.00208645
0.00208706
0.0020868
0.00208876
0.00204956
0.00204955
0.00204986
0.00205171
0.00201233
0.00201269
0.0020125
0.00201452
0.00197582
0.00197613
0.00197618
0.00197822
0.00193915
0.00193919
0.00193919
0.00194112
0.00190243
0.00190265
0.0019026
0.00190464
0.00186629
0.00186631
0.00186633
0.00186832
0.00183002
0.00183004
0.00183004
0.00183209
0.00179411
0.00179404
0.00179401
0.00179602
0.001758
0.00175794
0.00175798
0.00176005
0.00172243
0.00172226
0.00172226
0.0017243
0.00168664
0.00168652
0.00168649
0.00168857
0.00165122
0.00165094
0.001651
0.00165302
0.00161576
0.00161559
0.00161556
0.00161763
0.00158053
0.00158028
0.0015803
0.00158231
0.00154541
0.00154505
0.00154515
0.00154718
0.00151038
0.00151023
0.00151005
0.00151209
0.00147553
0.00147519
0.00147531
0.00147731
0.00144084
0.00144061
0.00144051
0.00144247
0.00140647
0.00140604
0.00140607
0.00140804
0.00137186
0.00137163
0.00137169
0.00137354
0.00133816
0.00133788
0.00133784
0.00133977
0.00130352
0.00130309
0.00130308
0.00130501
0.00126845
0.00126836
0.00126835
0.00127029
0.00123448
0.00123472
0.00123473
0.00123672
0.0012027
0.0012023
0.0012023
0.00120405
0.0011706
0.00116969
0.00116969
0.00117128
0.00113584
0.00113526
0.00113526
0.00113706
0.00109872
0.00109849
0.00109849
0.00110053
0.00105881
0.00105938
0.00105938
0.00106182
0.00101956
0.00102037
0.00102037
0.00102291
0.000983894
0.000984445
0.000984446
0.000986692
0.000952738
0.000952732
0.000952733
0.000954417
0.000923882
0.000923114
0.000923113
0.000924424
0.000894643
0.000894093
0.000894093
0.00089551
0.000864004
0.000863702
0.000863703
0.000865358
0.000831151
0.000830999
0.000830999
0.000832852
0.000796508
0.000796427
0.000796427
0.000798405
0.000760863
0.000760819
0.000760819
0.000762859
0.000724752
0.000724728
0.000724728
0.000726798
0.000688466
0.000688439
0.00068844
0.00069052
0.000652128
0.000652101
0.000652101
0.000654183
0.000615762
0.000615735
0.000615735
0.000617819
0.000579399
0.000579372
0.000579372
0.000581455
0.000543034
0.000543007
0.000543007
0.000545091
0.000506668
0.00050664
0.00050664
0.000508724
0.000470305
0.000470278
0.000470278
0.000472362
0.000433939
0.000433912
0.000433912
0.000435995
0.000397575
0.000397548
0.000397548
0.000399632
0.000361209
0.00036118
0.00036118
0.000363263
0.000324843
0.000324818
0.000324818
0.0003269
0.000288478
0.00028845
0.00028845
0.000290531
0.000252113
0.000252085
0.000252085
0.000254167
0.000215747
0.000215721
0.000215721
0.000217799
0.000179382
0.000179356
0.000179356
0.00018143
0.000143016
0.000142991
0.000142991
0.000145059
0.000106644
0.000106623
0.000106623
0.000108674
7.02755e-05
7.02488e-05
7.02476e-05
7.22645e-05
3.46714e-05
3.40988e-05
3.40957e-05
3.59621e-05
6.10822e-06
6.97883e-06
6.97807e-06
5.23947e-06
0.00353315
0.00353072
0.00353069
0.00353314
0.00353073
0.00353074
0.00353712
0.00353711
0.00353709
0.00353713
0.00353069
0.0035307
0.00353318
0.00353078
0.0035307
0.00353314
0.00352837
0.00349927
0.00352765
0.00352765
0.00350108
0.00350109
0.00352838
0.00349926
0.00352766
0.00352765
0.00350107
0.00350108
0.00352772
0.0035011
0.00350113
0.0035284
0.00349925
0.00352764
0.00350105
0.00350111
0.00349931
0.00349453
0.00346083
0.00349167
0.00349161
0.00346306
0.00346308
0.0034945
0.00346082
0.00349171
0.00349167
0.00346306
0.00346309
0.0034916
0.00346306
0.00346293
0.00349453
0.00346084
0.00349159
0.00346315
0.00346306
0.00346083
0.00345534
0.00341759
0.00345302
0.00345299
0.00342072
0.0034207
0.00345533
0.00341759
0.00345302
0.00345302
0.00342074
0.00342068
0.00345294
0.00342071
0.0034207
0.00345535
0.0034176
0.00345292
0.00342071
0.00342073
0.00341759
0.00341138
0.00336984
0.00340913
0.00340914
0.00337321
0.00337321
0.00341139
0.00336985
0.00340913
0.00340918
0.00337318
0.00337322
0.00340913
0.00337323
0.00337319
0.00341142
0.00336986
0.00340917
0.00337314
0.00337321
0.00336984
0.00336334
0.00332114
0.00336095
0.00336096
0.00332442
0.00332442
0.00336335
0.00332114
0.00336091
0.00336093
0.00332436
0.00332443
0.00336099
0.00332443
0.00332449
0.00336337
0.00332115
0.00336098
0.00332453
0.00332446
0.00332114
0.00331473
0.00327319
0.00331233
0.00331235
0.0032764
0.00327641
0.00331472
0.00327317
0.00331233
0.00331235
0.00327638
0.00327643
0.00331233
0.00327639
0.00327643
0.00331474
0.0032732
0.00331237
0.00327639
0.00327644
0.00327319
0.00326689
0.00322592
0.00326454
0.00326455
0.00322906
0.00322907
0.00326688
0.0032259
0.0032645
0.00326453
0.00322907
0.0032291
0.00326449
0.00322906
0.00322907
0.0032669
0.00322591
0.00326451
0.00322896
0.00322908
0.00322591
0.00321971
0.00317949
0.00321731
0.00321733
0.0031825
0.00318251
0.00321972
0.0031795
0.00321732
0.00321732
0.0031825
0.00318254
0.00321729
0.0031825
0.00318252
0.0032197
0.00317951
0.00321731
0.00318241
0.00318252
0.00317951
0.00317344
0.00313417
0.00317104
0.00317105
0.00313705
0.00313707
0.00317346
0.00313416
0.00317102
0.00317108
0.00313706
0.00313704
0.00317105
0.00313708
0.00313707
0.00317346
0.00313419
0.00317106
0.00313707
0.00313708
0.00313415
0.00312827
0.00308975
0.00312586
0.00312586
0.00309254
0.00309254
0.00312825
0.00308972
0.00312586
0.0031259
0.00309254
0.00309252
0.00312587
0.00309252
0.00309252
0.00312827
0.00308972
0.00312585
0.00309253
0.00309252
0.00308974
0.00308398
0.00304605
0.00308157
0.00308155
0.00304875
0.00304881
0.00308395
0.00304607
0.00308156
0.00308156
0.00304876
0.00304882
0.00308157
0.0030488
0.0030488
0.00308396
0.00304608
0.00308156
0.00304881
0.00304882
0.00304605
0.00304038
0.00300293
0.00303798
0.00303798
0.00300565
0.00300565
0.00304038
0.00300297
0.00303796
0.00303795
0.00300563
0.00300569
0.00303802
0.00300566
0.00300577
0.00304037
0.00300293
0.003038
0.00300565
0.00300574
0.003003
0.00299733
0.00296029
0.002995
0.002995
0.00296298
0.00296287
0.0029974
0.00296026
0.002995
0.00299499
0.00296299
0.00296299
0.00299495
0.00296286
0.00296296
0.00299735
0.00296025
0.00299498
0.00296306
0.00296297
0.00296023
0.00295477
0.00291789
0.00295244
0.0029524
0.00292046
0.00292053
0.00295476
0.00291787
0.00295244
0.00295226
0.00292046
0.0029206
0.00295235
0.00292055
0.00292067
0.00295467
0.00291789
0.00295234
0.00292055
0.00292067
0.00291791
0.00291247
0.00287579
0.00291012
0.00291011
0.00287839
0.00287855
0.00291242
0.00287589
0.00291011
0.00291007
0.00287839
0.00287865
0.00291002
0.00287852
0.00287858
0.00291239
0.00287579
0.00291006
0.00287851
0.00287859
0.00287585
0.00287034
0.00283403
0.00286798
0.00286815
0.00283681
0.00283679
0.0028705
0.00283411
0.002868
0.00286806
0.00283686
0.002837
0.00286806
0.00283683
0.00283688
0.00287037
0.00283411
0.00286805
0.00283684
0.00283687
0.00283407
0.00282862
0.00279263
0.00282626
0.00282654
0.00279536
0.00279521
0.0028288
0.00279266
0.00282633
0.00282646
0.00279549
0.00279546
0.00282632
0.00279522
0.00279544
0.00282875
0.0027927
0.00282632
0.00279527
0.0027954
0.00279262
0.0027873
0.00275143
0.00278503
0.00278513
0.00275413
0.00275419
0.0027874
0.00275146
0.00278504
0.00278517
0.0027542
0.00275434
0.00278511
0.00275424
0.00275437
0.00278744
0.00275146
0.00278513
0.00275421
0.00275438
0.00275154
0.00274619
0.00271067
0.00274407
0.00274389
0.00271357
0.00271377
0.00274616
0.00271062
0.00274397
0.00274407
0.00271358
0.00271358
0.00274421
0.00271383
0.00271353
0.00274625
0.00271061
0.00274418
0.00271351
0.00271343
0.00271078
0.00270548
0.00267023
0.0027035
0.00270364
0.00267329
0.0026729
0.00270552
0.00267042
0.00270331
0.00270343
0.00267331
0.00267316
0.00270344
0.00267293
0.00267328
0.00270547
0.00267014
0.00270346
0.00267301
0.00267312
0.00267016
0.00266516
0.00263015
0.00266332
0.0026631
0.0026332
0.00263336
0.00266504
0.00263003
0.00266308
0.00266312
0.0026332
0.00263318
0.00266307
0.00263335
0.00263336
0.00266501
0.00263005
0.00266309
0.00263289
0.00263319
0.0026301
0.00262504
0.00259037
0.00262327
0.0026233
0.00259344
0.00259334
0.00262505
0.00259017
0.00262313
0.00262324
0.00259347
0.00259342
0.0026234
0.00259329
0.00259328
0.00262492
0.00259047
0.00262329
0.00259339
0.00259327
0.00259018
0.00258532
0.00255081
0.00258363
0.00258368
0.00255404
0.00255386
0.0025853
0.00255075
0.00258358
0.00258344
0.00255402
0.00255403
0.00258362
0.00255385
0.0025538
0.00258518
0.00255101
0.00258349
0.00255409
0.00255383
0.00255078
0.00254576
0.00251204
0.00254408
0.00254416
0.00251482
0.00251457
0.00254577
0.0025116
0.00254406
0.00254401
0.00251478
0.00251482
0.00254407
0.00251456
0.00251456
0.00254584
0.00251209
0.00254404
0.002515
0.00251458
0.00251165
0.00250732
0.00247228
0.00250522
0.00250494
0.00247541
0.00247575
0.00250665
0.00247288
0.00250515
0.00250509
0.00247546
0.0024756
0.00250483
0.00247569
0.00247578
0.00250741
0.00247255
0.00250486
0.00247545
0.00247575
0.00247312
0.0024672
0.00243492
0.00246583
0.00246602
0.00243697
0.00243689
0.00246784
0.00243373
0.00246581
0.00246579
0.002437
0.00243696
0.00246601
0.00243696
0.00243682
0.00246728
0.00243468
0.00246599
0.00243713
0.00243688
0.00243349
0.00242989
0.00239523
0.00242729
0.00242732
0.0023982
0.00239836
0.00242918
0.00239585
0.00242733
0.00242734
0.00239828
0.00239834
0.00242732
0.00239837
0.00239838
0.00242993
0.0023957
0.00242737
0.00239829
0.00239838
0.00239607
0.00239022
0.00235799
0.00238863
0.00238854
0.00236015
0.00236029
0.00239051
0.00235765
0.0023887
0.00238877
0.00236007
0.00235997
0.00238869
0.00236028
0.00236019
0.00239063
0.00235733
0.00238867
0.00235994
0.00236008
0.00235668
0.00235314
0.00231877
0.00235054
0.00235082
0.0023218
0.00232173
0.00235307
0.00231964
0.00235051
0.00235046
0.00232179
0.0023218
0.0023507
0.00232174
0.00232169
0.00235242
0.00231945
0.0023506
0.00232185
0.00232174
0.00231952
0.00231386
0.00228164
0.00231232
0.0023121
0.00228383
0.00228372
0.00231428
0.00228053
0.00231231
0.00231227
0.00228389
0.00228382
0.00231209
0.00228375
0.00228383
0.00231459
0.00228116
0.00231216
0.00228378
0.00228387
0.00228052
0.00227673
0.00224313
0.00227429
0.00227426
0.00224601
0.00224615
0.00227592
0.00224355
0.00227431
0.00227439
0.002246
0.00224606
0.00227446
0.00224616
0.00224613
0.00227622
0.00224363
0.00227449
0.00224611
0.00224612
0.00224384
0.00223826
0.002206
0.0022367
0.00223676
0.00220829
0.00220826
0.00223863
0.00220586
0.00223667
0.00223662
0.00220833
0.00220823
0.00223668
0.00220827
0.00220824
0.00223878
0.00220566
0.00223667
0.00220823
0.00220822
0.00220564
0.00220104
0.00216818
0.00219883
0.00219881
0.00217071
0.00217081
0.00220091
0.00216833
0.00219888
0.00219886
0.00217071
0.00217083
0.00219884
0.00217083
0.00217081
0.0022007
0.0021683
0.00219884
0.00217084
0.00217081
0.00216832
0.00216333
0.00213073
0.00216141
0.00216148
0.0021334
0.00213329
0.00216342
0.00213074
0.00216138
0.00216146
0.0021334
0.00213333
0.00216143
0.00213327
0.00213338
0.00216342
0.00213088
0.00216143
0.00213332
0.0021334
0.00213084
0.00212582
0.00209368
0.002124
0.00212395
0.00209606
0.00209625
0.00212592
0.00209389
0.00212403
0.00212402
0.00209606
0.00209605
0.00212402
0.00209628
0.00209603
0.00212596
0.00209357
0.00212403
0.00209606
0.00209602
0.00209361
0.00208885
0.0020565
0.00208687
0.00208705
0.00205912
0.00205895
0.00208903
0.00205633
0.00208686
0.00208678
0.00205911
0.00205921
0.00208678
0.00205894
0.0020592
0.00208873
0.00205671
0.00208676
0.00205921
0.00205917
0.00205669
0.00205155
0.00201941
0.00204974
0.00204956
0.00202177
0.00202182
0.00205146
0.00201951
0.00204976
0.00204988
0.00202179
0.00202173
0.00204985
0.00202182
0.00202173
0.00205173
0.00201928
0.00204984
0.00202173
0.00202176
0.00201932
0.00201459
0.00198301
0.00201259
0.00201269
0.00198529
0.00198534
0.00201468
0.001983
0.00201258
0.0020125
0.00198527
0.00198527
0.00201252
0.00198534
0.00198529
0.00201448
0.00198308
0.00201254
0.00198526
0.00198526
0.00198306
0.00197812
0.00194596
0.00197613
0.00197614
0.00194839
0.00194838
0.00197805
0.00194599
0.00197614
0.00197618
0.0019484
0.00194848
0.00197618
0.00194837
0.00194846
0.00197826
0.00194595
0.00197616
0.00194849
0.00194847
0.00194597
0.00194114
0.00190956
0.00193917
0.00193919
0.00191175
0.00191172
0.00194118
0.00190951
0.00193916
0.00193919
0.00191176
0.00191168
0.0019392
0.00191174
0.00191168
0.00194108
0.00190948
0.0019392
0.00191166
0.00191168
0.00190946
0.00190473
0.00187306
0.00190267
0.00190262
0.00187538
0.00187543
0.0019047
0.00187313
0.00190269
0.00190261
0.00187534
0.0018754
0.00190259
0.0018754
0.00187541
0.00190467
0.00187312
0.0019026
0.00187541
0.00187541
0.00187314
0.00186825
0.00183695
0.00186627
0.00186634
0.00183911
0.00183905
0.00186829
0.00183687
0.00186624
0.0018663
0.00183915
0.00183911
0.00186633
0.00183906
0.0018391
0.00186831
0.00183689
0.00186632
0.0018391
0.0018391
0.00183688
0.00183216
0.00180074
0.00183011
0.00183004
0.001803
0.00180306
0.00183211
0.00180084
0.00183015
0.00183008
0.00180297
0.00180297
0.00183005
0.00180306
0.00180299
0.00183207
0.00180081
0.00183006
0.00180298
0.00180299
0.00180081
0.00179594
0.00176488
0.00179393
0.00179402
0.00176697
0.00176691
0.00179602
0.00176481
0.0017939
0.00179397
0.00176697
0.00176701
0.00179399
0.00176692
0.00176699
0.00179605
0.00176483
0.00179398
0.00176701
0.00176697
0.00176483
0.00176011
0.00172902
0.00175805
0.00175797
0.00173119
0.00173122
0.00176005
0.00172905
0.00175806
0.00175801
0.00173121
0.00173112
0.00175799
0.00173119
0.00173117
0.00176003
0.00172906
0.00175799
0.00173112
0.00173118
0.00172906
0.00172424
0.00169335
0.00172219
0.00172224
0.00169542
0.00169538
0.00172427
0.00169334
0.00172221
0.00172224
0.00169541
0.00169548
0.00172226
0.00169543
0.00169543
0.00172431
0.00169332
0.00172226
0.0016955
0.00169543
0.00169332
0.0016886
0.00165777
0.00168657
0.00168653
0.00165988
0.00165993
0.0016886
0.00165776
0.00168655
0.00168651
0.0016599
0.00165981
0.0016865
0.00165986
0.00165985
0.00168854
0.00165778
0.0016865
0.0016598
0.00165984
0.00165777
0.00165302
0.00162231
0.00165094
0.00165097
0.00162436
0.00162429
0.00165299
0.00162233
0.00165099
0.00165098
0.00162435
0.00162445
0.00165098
0.00162438
0.00162443
0.00165305
0.00162234
0.00165097
0.00162448
0.00162443
0.00162236
0.00161758
0.00158705
0.00161557
0.00161552
0.00158912
0.00158926
0.00161763
0.00158709
0.00161551
0.00161554
0.00158909
0.00158907
0.00161559
0.00158918
0.00158909
0.00161759
0.00158704
0.00161559
0.00158906
0.00158908
0.00158703
0.00158233
0.0015519
0.00158027
0.00158038
0.0015539
0.00155378
0.00158233
0.00155178
0.0015803
0.00158031
0.00155398
0.00155398
0.00158026
0.00155375
0.00155393
0.00158233
0.0015519
0.00158027
0.00155397
0.00155399
0.0015519
0.00154719
0.00151678
0.00154516
0.00154505
0.00151887
0.00151891
0.00154711
0.00151689
0.00154519
0.00154515
0.00151878
0.00151877
0.00154517
0.00151897
0.00151881
0.00154718
0.00151675
0.00154521
0.00151877
0.00151875
0.00151677
0.00151207
0.00148189
0.00151011
0.00151017
0.00148391
0.00148391
0.00151219
0.00148189
0.00151002
0.00151004
0.00148391
0.00148398
0.00151007
0.00148392
0.00148405
0.00151206
0.00148195
0.00151001
0.00148402
0.00148404
0.00148199
0.00147722
0.00144725
0.00147522
0.00147521
0.00144924
0.00144927
0.00147721
0.00144722
0.00147523
0.00147527
0.00144927
0.00144921
0.00147534
0.00144921
0.00144911
0.00147728
0.00144718
0.00147536
0.00144917
0.00144914
0.00144711
0.0014426
0.00141264
0.00144062
0.00144064
0.00141471
0.00141464
0.00144257
0.00141262
0.00144065
0.00144056
0.00141474
0.0014147
0.00144048
0.00141474
0.00141473
0.00144252
0.00141266
0.00144049
0.00141471
0.00141472
0.00141268
0.00140796
0.00137817
0.00140602
0.00140596
0.00138017
0.00138017
0.00140795
0.00137816
0.00140604
0.00140604
0.00138015
0.00138019
0.0014061
0.00138013
0.00138014
0.001408
0.0013782
0.0014061
0.00138019
0.00138014
0.00137814
0.00137358
0.00134433
0.00137167
0.00137169
0.00134637
0.00134639
0.00137357
0.00134437
0.00137166
0.00137169
0.00134635
0.00134635
0.00137162
0.00134637
0.00134634
0.0013736
0.00134431
0.00137161
0.00134635
0.00134633
0.00134435
0.00133971
0.00130968
0.00133784
0.00133787
0.00131178
0.0013118
0.00133975
0.0013097
0.00133783
0.00133781
0.00131178
0.00131178
0.00133788
0.00131183
0.00131184
0.0013397
0.0013097
0.00133788
0.00131181
0.00131184
0.00130973
0.00130497
0.00127496
0.00130306
0.00130307
0.00127698
0.00127698
0.00130499
0.00127495
0.00130306
0.00130306
0.00127699
0.00127698
0.00130309
0.00127697
0.00127696
0.00130498
0.00127495
0.00130309
0.00127696
0.00127695
0.00127492
0.00127034
0.00124124
0.00126837
0.00126838
0.00124305
0.00124304
0.00127032
0.00124122
0.00126839
0.00126839
0.00124307
0.00124307
0.00126835
0.00124304
0.00124303
0.00127033
0.00124124
0.00126833
0.00124304
0.00124302
0.00124121
0.00123674
0.00120839
0.00123472
0.00123472
0.00121033
0.00121033
0.00123673
0.00120839
0.00123475
0.00123475
0.00121035
0.00121034
0.00123472
0.00121035
0.00121037
0.00123675
0.0012084
0.00123471
0.00121035
0.00121037
0.00120844
0.00120399
0.00117575
0.00120228
0.00120228
0.00117794
0.00117795
0.001204
0.00117575
0.00120228
0.00120227
0.00117793
0.00117793
0.00120234
0.00117794
0.00117795
0.001204
0.00117574
0.00120234
0.00117794
0.00117795
0.00117575
0.00117128
0.00114184
0.0011697
0.0011697
0.00114409
0.00114409
0.00117128
0.00114184
0.00116969
0.00116969
0.00114408
0.00114408
0.00116969
0.00114408
0.00114408
0.00117127
0.00114183
0.0011697
0.00114408
0.00114408
0.00114183
0.00113707
0.00110567
0.00113527
0.00113527
0.00110795
0.00110795
0.00113706
0.00110567
0.00113527
0.00113526
0.00110795
0.00110794
0.00113526
0.00110795
0.00110794
0.00113706
0.00110567
0.00113526
0.00110794
0.00110794
0.00110567
0.00110054
0.00106715
0.00109849
0.00109849
0.00106922
0.00106922
0.00110054
0.00106715
0.00109849
0.00109849
0.00106922
0.00106923
0.00109849
0.00106922
0.00106921
0.00110054
0.00106716
0.00109849
0.00106922
0.00106921
0.00106715
0.00106182
0.00102808
0.00105937
0.00105938
0.00102995
0.00102995
0.00106182
0.00102808
0.00105938
0.00105938
0.00102995
0.00102995
0.00105937
0.00102995
0.00102995
0.00106182
0.00102809
0.00105937
0.00102995
0.00102995
0.00102809
0.0010229
0.000991346
0.00102037
0.00102037
0.000993027
0.000993028
0.00102291
0.000991349
0.00102037
0.00102037
0.000993027
0.000993027
0.00102038
0.000993029
0.000993031
0.00102291
0.000991349
0.00102038
0.000993031
0.000993031
0.000991351
0.000986687
0.000958582
0.000984442
0.000984444
0.000960328
0.000960326
0.00098669
0.000958583
0.000984442
0.000984442
0.000960325
0.000960325
0.000984446
0.000960327
0.000960329
0.00098669
0.000958582
0.000984448
0.000960327
0.000960328
0.000958584
0.000954416
0.00092838
0.000952733
0.000952732
0.000930393
0.000930393
0.000954416
0.00092838
0.000952732
0.000952731
0.000930393
0.000930392
0.000952734
0.000930393
0.000930393
0.000954416
0.000928379
0.000952734
0.000930393
0.000930393
0.000928379
0.000924425
0.000899465
0.000923114
0.000923113
0.00090141
0.00090141
0.000924424
0.000899465
0.000923113
0.000923112
0.00090141
0.00090141
0.000923113
0.00090141
0.00090141
0.000924424
0.000899465
0.000923113
0.00090141
0.000901409
0.000899464
0.000895511
0.000869593
0.000894095
0.000894094
0.000871508
0.000871508
0.00089551
0.000869593
0.000894094
0.000894094
0.000871507
0.000871508
0.000894093
0.000871507
0.000871508
0.000895511
0.000869593
0.000894092
0.000871507
0.000871509
0.000869593
0.000865357
0.000837412
0.000863703
0.000863702
0.000839384
0.000839384
0.000865356
0.000837412
0.000863703
0.000863704
0.000839383
0.000839384
0.000863704
0.000839383
0.000839384
0.000865357
0.000837412
0.000863703
0.000839384
0.000839384
0.000837411
0.000832853
0.000803171
0.000830999
0.000830999
0.000805197
0.000805197
0.000832852
0.000803171
0.000830999
0.000830999
0.000805196
0.000805197
0.000830999
0.000805197
0.000805197
0.000832854
0.000803171
0.000830999
0.000805197
0.000805197
0.000803171
0.000798404
0.000767728
0.000796427
0.000796427
0.000769782
0.000769782
0.000798404
0.000767729
0.000796427
0.000796427
0.000769782
0.000769782
0.000796427
0.000769782
0.000769782
0.000798404
0.000767728
0.000796427
0.000769782
0.000769782
0.000767728
0.000762859
0.000731713
0.000760819
0.000760819
0.000733777
0.000733777
0.000762859
0.000731713
0.000760819
0.000760819
0.000733777
0.000733777
0.000760819
0.000733777
0.000733777
0.000762859
0.000731713
0.000760819
0.000733777
0.000733777
0.000731712
0.000726798
0.000695451
0.000724728
0.000724728
0.000697519
0.000697519
0.000726798
0.000695451
0.000724728
0.000724728
0.000697519
0.000697519
0.000724728
0.000697519
0.00069752
0.000726798
0.00069545
0.000724728
0.000697519
0.000697519
0.00069545
0.00069052
0.000659117
0.00068844
0.000688439
0.000661189
0.000661189
0.000690519
0.000659117
0.000688439
0.00068844
0.000661189
0.000661189
0.00068844
0.000661189
0.000661189
0.00069052
0.000659117
0.00068844
0.000661189
0.000661189
0.000659117
0.000654183
0.000622756
0.000652101
0.000652101
0.000624827
0.000624827
0.000654182
0.000622756
0.000652101
0.000652101
0.000624827
0.000624827
0.000652101
0.000624827
0.000624827
0.000654183
0.000622756
0.000652101
0.000624827
0.000624827
0.000622756
0.000617819
0.00058639
0.000615735
0.000615735
0.000588461
0.000588461
0.000617818
0.00058639
0.000615734
0.000615735
0.000588461
0.000588461
0.000615735
0.000588461
0.000588461
0.000617819
0.00058639
0.000615735
0.000588461
0.000588461
0.00058639
0.000581455
0.000550027
0.000579372
0.000579372
0.000552099
0.000552099
0.000581454
0.000550028
0.000579372
0.000579372
0.000552099
0.000552099
0.000579372
0.000552099
0.000552099
0.000581455
0.000550027
0.000579372
0.000552099
0.000552099
0.000550027
0.000545091
0.000513659
0.000543007
0.000543007
0.00051573
0.00051573
0.00054509
0.00051366
0.000543007
0.000543007
0.00051573
0.00051573
0.000543007
0.00051573
0.000515731
0.000545091
0.000513659
0.000543007
0.00051573
0.00051573
0.000513659
0.000508723
0.000477298
0.00050664
0.00050664
0.000479369
0.000479369
0.000508723
0.000477298
0.00050664
0.00050664
0.000479369
0.000479369
0.000506641
0.000479369
0.000479369
0.000508723
0.000477298
0.00050664
0.000479369
0.000479369
0.000477298
0.000472361
0.000440931
0.000470278
0.000470278
0.000443003
0.000443003
0.000472361
0.000440931
0.000470278
0.000470278
0.000443003
0.000443003
0.000470278
0.000443003
0.000443003
0.000472361
0.000440931
0.000470278
0.000443003
0.000443003
0.000440931
0.000435994
0.000404567
0.000433912
0.000433912
0.000406638
0.000406638
0.000435994
0.000404568
0.000433912
0.000433912
0.000406638
0.000406638
0.000433912
0.000406638
0.000406638
0.000435994
0.000404567
0.000433912
0.000406638
0.000406638
0.000404567
0.000399632
0.0003682
0.000397548
0.000397548
0.000370272
0.000370271
0.000399631
0.0003682
0.000397548
0.000397548
0.000370271
0.000370271
0.000397548
0.000370272
0.000370272
0.000399632
0.0003682
0.000397548
0.000370271
0.000370271
0.0003682
0.000363263
0.000331837
0.00036118
0.00036118
0.000333908
0.000333908
0.000363262
0.000331837
0.00036118
0.00036118
0.000333908
0.000333908
0.00036118
0.000333908
0.000333908
0.000363263
0.000331837
0.00036118
0.000333908
0.000333908
0.000331837
0.0003269
0.000295468
0.000324818
0.000324818
0.000297539
0.000297539
0.0003269
0.000295469
0.000324818
0.000324818
0.000297539
0.000297539
0.000324818
0.000297539
0.000297539
0.0003269
0.000295468
0.000324818
0.000297539
0.000297539
0.000295468
0.000290531
0.000259106
0.00028845
0.00028845
0.000261175
0.000261175
0.000290531
0.000259106
0.00028845
0.00028845
0.000261175
0.000261175
0.00028845
0.000261175
0.000261175
0.000290531
0.000259105
0.00028845
0.000261175
0.000261175
0.000259105
0.000254167
0.000222739
0.000252085
0.000252085
0.000224809
0.000224809
0.000254166
0.00022274
0.000252085
0.000252085
0.000224809
0.000224809
0.000252086
0.000224809
0.000224809
0.000254167
0.000222739
0.000252085
0.000224809
0.000224809
0.000222739
0.000217799
0.000186375
0.000215721
0.000215721
0.000188443
0.000188443
0.000217799
0.000186375
0.000215721
0.000215721
0.000188443
0.000188443
0.000215721
0.000188443
0.000188443
0.000217799
0.000186375
0.000215721
0.000188443
0.000188443
0.000186375
0.00018143
0.000150012
0.000179356
0.000179356
0.000152077
0.000152077
0.00018143
0.000150013
0.000179356
0.000179356
0.000152076
0.000152076
0.000179356
0.000152077
0.000152077
0.00018143
0.000150012
0.000179356
0.000152077
0.000152077
0.000150013
0.000145059
0.000113646
0.000142991
0.000142991
0.000115707
0.000115707
0.000145059
0.000113647
0.000142991
0.000142991
0.000115707
0.000115706
0.000142991
0.000115707
0.000115707
0.000145059
0.000113646
0.000142991
0.000115706
0.000115707
0.000113646
0.000108674
7.7275e-05
0.000106623
0.000106623
7.93307e-05
7.93304e-05
0.000108674
7.72757e-05
0.000106623
0.000106623
7.93304e-05
7.93298e-05
0.000106623
7.93306e-05
7.933e-05
0.000108674
7.7274e-05
0.000106623
7.93298e-05
7.933e-05
7.72743e-05
7.22654e-05
4.09464e-05
7.02491e-05
7.02487e-05
4.29985e-05
4.29993e-05
7.2265e-05
4.09475e-05
7.02483e-05
7.02477e-05
4.29966e-05
4.29958e-05
7.02482e-05
4.29976e-05
4.29952e-05
7.2265e-05
4.09434e-05
7.02479e-05
4.29952e-05
4.29941e-05
4.0943e-05
3.59661e-05
8.47247e-06
3.41003e-05
3.41007e-05
1.15012e-05
1.15011e-05
3.59662e-05
8.4726e-06
3.40988e-05
3.40966e-05
1.15022e-05
1.14959e-05
3.40957e-05
1.15014e-05
1.14944e-05
3.59629e-05
8.46924e-06
3.40951e-05
1.14998e-05
1.14998e-05
8.46794e-06
5.2424e-06
6.97794e-06
6.97783e-06
5.2434e-06
6.97833e-06
6.97424e-06
6.10791e-06
6.10747e-06
6.10655e-06
6.97348e-06
5.24124e-06
6.97734e-06
0.00354025
0.00354282
0.00354161
0.00354162
0.00356889
0.00354276
0.00357232
0.00354301
0.0035689
0.00354283
0.00354303
0.0035723
0.00355375
0.00357555
0.00357546
0.00351277
0.00352641
0.00353022
0.003505
0.00350309
0.00350837
0.0035127
0.00352639
0.00353033
0.003505
0.00352871
0.00352869
0.00352871
0.00350216
0.00350218
0.00350212
0.00350219
0.00351245
0.00352401
0.00352928
0.00351995
0.00353142
0.00350951
0.00352025
0.00350321
0.00350838
0.00351241
0.00352926
0.0035241
0.00351986
0.00353138
0.00352018
0.00350947
0.0035302
0.00353015
0.00351725
0.0035094
0.00350936
0.00348526
0.0034994
0.00349921
0.00348324
0.00349661
0.00348226
0.00348511
0.0034994
0.00349918
0.00348324
0.00349311
0.00349307
0.0034931
0.00346506
0.00346505
0.00346503
0.00346504
0.00348303
0.00349793
0.00349155
0.00348225
0.00349636
0.00348348
0.00348224
0.00349664
0.00348229
0.003483
0.00349156
0.00349794
0.0034823
0.00349638
0.00348221
0.00348352
0.00349966
0.00349959
0.00348067
0.00348389
0.00348385
0.00344296
0.00345759
0.00345858
0.0034416
0.0034564
0.00344075
0.00344284
0.00345761
0.00345848
0.00344161
0.00345502
0.00345499
0.00345499
0.00342246
0.00342245
0.00342242
0.00342243
0.00344164
0.00345717
0.00345303
0.00344265
0.0034561
0.00344204
0.00344264
0.00345642
0.00344078
0.00344164
0.00345305
0.00345717
0.0034427
0.00345613
0.00344264
0.00344211
0.00345747
0.00345779
0.00343995
0.00344198
0.00344195
0.00339629
0.00341299
0.00341462
0.003395
0.00341228
0.00339452
0.00339644
0.00341296
0.00341443
0.00339507
0.00341084
0.00341082
0.00341083
0.00337472
0.00337472
0.00337469
0.00337472
0.00339563
0.00341281
0.00340915
0.00339736
0.00341221
0.0033957
0.00339731
0.00341232
0.00339451
0.00339563
0.00340917
0.00341284
0.00339733
0.00341224
0.00339731
0.00339577
0.00341313
0.00341309
0.00339405
0.00339527
0.00339522
0.00334741
0.00336453
0.00336581
0.0033462
0.00336414
0.00334586
0.00334739
0.00336463
0.00336579
0.00334611
0.00336249
0.00336245
0.00336248
0.00332588
0.00332588
0.00332585
0.00332587
0.00334699
0.00336451
0.00336098
0.00334879
0.0033642
0.00334692
0.00334878
0.00336413
0.00334585
0.00334696
0.00336099
0.0033646
0.00334881
0.00336418
0.00334879
0.00334682
0.00336463
0.0033646
0.00334546
0.00334631
0.00334631
0.00329837
0.00331564
0.00331675
0.00329759
0.0033154
0.00329735
0.00329848
0.0033158
0.00331657
0.00329756
0.00331377
0.00331374
0.00331376
0.00327773
0.00327772
0.00327771
0.00327772
0.00329841
0.00331569
0.00331235
0.0033003