/*--------------------------------*- C++ -*----------------------------------*\
| =========                 |                                                 |
| \\      /  F ield         | OpenFOAM: The Open Source CFD Toolbox           |
|  \\    /   O peration     | Version:  v1906                                 |
|   \\  /    A nd           | Web:      www.OpenFOAM.com                      |
|    \\/     M anipulation  |                                                 |
\*---------------------------------------------------------------------------*/
FoamFile
{
    version     2.0;
    format      ascii;
    class       volScalarField;
    location    "75";
    object      epsilon;
}
// * * * * * * * * * * * * * * * * * * * * * * * * * * * * * * * * * * * * * //

dimensions      [0 2 -3 0 0 0 0];


internalField   nonuniform List<scalar> 
171728
(
1.44347e-07
2.94332e-08
2.09008e-08
8.01073e-09
1.46937e-07
2.44725e-08
2.3252e-08
7.80719e-09
1.52418e-07
2.51922e-08
2.67437e-08
8.35139e-09
1.57826e-07
2.92413e-08
3.11677e-08
9.57018e-09
1.6349e-07
3.45962e-08
3.66201e-08
1.16492e-08
1.69171e-07
4.14069e-08
4.34519e-08
1.53999e-08
1.74679e-07
4.99195e-08
5.17253e-08
2.12932e-08
1.8031e-07
6.05802e-08
6.17192e-08
2.86046e-08
1.86128e-07
7.28919e-08
7.39169e-08
3.73205e-08
1.92079e-07
8.78672e-08
8.86949e-08
4.87568e-08
1.98364e-07
1.04742e-07
1.05479e-07
6.47477e-08
2.066e-07
1.25633e-07
1.26017e-07
8.75512e-08
2.16258e-07
1.4933e-07
1.4962e-07
1.17639e-07
2.28618e-07
1.79502e-07
1.79633e-07
1.58567e-07
2.44045e-07
2.19488e-07
2.19735e-07
2.20771e-07
2.64313e-07
2.75268e-07
2.75413e-07
3.1446e-07
2.83362e-07
3.34579e-07
3.34628e-07
4.1491e-07
3.01006e-07
3.87737e-07
3.87778e-07
4.93933e-07
3.12364e-07
4.16518e-07
4.16559e-07
5.31746e-07
3.16354e-07
4.24449e-07
4.2449e-07
5.39633e-07
3.17207e-07
4.258e-07
4.2584e-07
5.40798e-07
3.1735e-07
4.26e-07
4.26038e-07
5.40994e-07
3.17378e-07
4.26036e-07
4.26074e-07
5.4099e-07
3.17389e-07
4.2605e-07
4.26087e-07
5.41004e-07
3.17397e-07
4.26061e-07
4.26098e-07
5.4101e-07
3.17402e-07
4.26068e-07
4.26103e-07
5.41014e-07
3.17407e-07
4.26069e-07
4.26105e-07
5.41018e-07
3.17411e-07
4.26069e-07
4.26105e-07
5.41011e-07
3.17412e-07
4.2607e-07
4.26105e-07
5.41014e-07
3.17412e-07
4.2607e-07
4.26105e-07
5.41009e-07
3.17412e-07
4.26071e-07
4.26106e-07
5.41e-07
3.17413e-07
4.26071e-07
4.26105e-07
5.40995e-07
3.17414e-07
4.2607e-07
4.26105e-07
5.40991e-07
3.17413e-07
4.2607e-07
4.26104e-07
5.40985e-07
3.17413e-07
4.26069e-07
4.26105e-07
5.40982e-07
3.17412e-07
4.26069e-07
4.26105e-07
5.40983e-07
3.17412e-07
4.2607e-07
4.26105e-07
5.40979e-07
3.17412e-07
4.2607e-07
4.26105e-07
5.40979e-07
3.17412e-07
4.2607e-07
4.26105e-07
5.4098e-07
3.17412e-07
4.26071e-07
4.26105e-07
5.40979e-07
3.17414e-07
4.26071e-07
4.26106e-07
5.40977e-07
3.17415e-07
4.26069e-07
4.26105e-07
5.40976e-07
3.17413e-07
4.26067e-07
4.26105e-07
5.40977e-07
3.17412e-07
4.26066e-07
4.26105e-07
5.40978e-07
3.17414e-07
4.26066e-07
4.26104e-07
5.40978e-07
3.17415e-07
4.26067e-07
4.26104e-07
5.40979e-07
3.17414e-07
4.26067e-07
4.26104e-07
5.40976e-07
3.17413e-07
4.26067e-07
4.26105e-07
5.40977e-07
3.17413e-07
4.26068e-07
4.26105e-07
5.4098e-07
3.17413e-07
4.26068e-07
4.26105e-07
5.4098e-07
3.17413e-07
4.26068e-07
4.26105e-07
5.40978e-07
3.17413e-07
4.26068e-07
4.26104e-07
5.40976e-07
3.17413e-07
4.26069e-07
4.26105e-07
5.40977e-07
3.17413e-07
4.26069e-07
4.26104e-07
5.40977e-07
3.17413e-07
4.26069e-07
4.26104e-07
5.40979e-07
3.17412e-07
4.26069e-07
4.26104e-07
5.40977e-07
3.17412e-07
4.26068e-07
4.26104e-07
5.40978e-07
3.17412e-07
4.26068e-07
4.26105e-07
5.40981e-07
3.17412e-07
4.26068e-07
4.26104e-07
5.40979e-07
3.17412e-07
4.26068e-07
4.26105e-07
5.40977e-07
3.17411e-07
4.26068e-07
4.26105e-07
5.40975e-07
3.17411e-07
4.26067e-07
4.26106e-07
5.40976e-07
3.17411e-07
4.26067e-07
4.26105e-07
5.40975e-07
3.17411e-07
4.26067e-07
4.26104e-07
5.40976e-07
3.17411e-07
4.26067e-07
4.26104e-07
5.40975e-07
3.17411e-07
4.26066e-07
4.26104e-07
5.40975e-07
3.17412e-07
4.26067e-07
4.26104e-07
5.40981e-07
3.17412e-07
4.26067e-07
4.26104e-07
5.4098e-07
3.17412e-07
4.26067e-07
4.26104e-07
5.40978e-07
3.17414e-07
4.26067e-07
4.26103e-07
5.40979e-07
3.17414e-07
4.26067e-07
4.26104e-07
5.40975e-07
3.17413e-07
4.26068e-07
4.26105e-07
5.40975e-07
3.17413e-07
4.26068e-07
4.26105e-07
5.40978e-07
3.17412e-07
4.26069e-07
4.26105e-07
5.4098e-07
3.17412e-07
4.26069e-07
4.26104e-07
5.40975e-07
3.17411e-07
4.26069e-07
4.26104e-07
5.40974e-07
3.17411e-07
4.26069e-07
4.26104e-07
5.40979e-07
3.17411e-07
4.26071e-07
4.26106e-07
5.4098e-07
3.17413e-07
4.2607e-07
4.26107e-07
5.40977e-07
3.17415e-07
4.26071e-07
4.26108e-07
5.40976e-07
3.17416e-07
4.26073e-07
4.2611e-07
5.40975e-07
3.17417e-07
4.26074e-07
4.2611e-07
5.40978e-07
3.1742e-07
4.26074e-07
4.26111e-07
5.4098e-07
3.17421e-07
4.26075e-07
4.26112e-07
5.40981e-07
3.17423e-07
4.26077e-07
4.26113e-07
5.40976e-07
3.17424e-07
4.26079e-07
4.26115e-07
5.40977e-07
3.17425e-07
4.2608e-07
4.26116e-07
5.40981e-07
3.17425e-07
4.2608e-07
4.26117e-07
5.40982e-07
3.17426e-07
4.2608e-07
4.26116e-07
5.40977e-07
3.17427e-07
4.26078e-07
4.26114e-07
5.40973e-07
3.17429e-07
4.26073e-07
4.26109e-07
5.40969e-07
3.17432e-07
4.26062e-07
4.26097e-07
5.40961e-07
3.17432e-07
4.26036e-07
4.2607e-07
5.40935e-07
3.17397e-07
4.25996e-07
4.26029e-07
5.40784e-07
3.14754e-07
4.11552e-07
4.11558e-07
5.21629e-07
9.30022e-09
1.75163e-08
1.82629e-08
8.31961e-09
2.18242e-08
1.44365e-08
1.46395e-07
1.458e-07
1.45993e-07
1.46824e-07
1.7467e-08
1.56622e-08
7.3724e-09
1.5069e-08
1.51493e-08
8.12119e-09
9.20235e-09
9.48457e-09
2.25595e-08
2.76347e-08
2.4293e-08
2.94501e-08
8.21177e-09
8.08597e-09
3.78494e-08
1.98366e-08
3.75583e-08
2.12513e-08
2.18866e-08
2.49094e-08
2.35202e-08
7.33135e-09
7.49057e-09
2.13747e-08
2.2479e-08
2.31421e-08
7.87219e-09
9.42055e-09
1.01184e-08
2.51441e-08
3.02877e-08
2.79949e-08
3.29802e-08
8.01261e-09
8.62264e-09
3.74441e-08
2.20273e-08
3.52063e-08
2.47261e-08
2.43434e-08
2.45955e-08
2.71085e-08
7.45318e-09
8.19673e-09
2.40123e-08
2.58334e-08
2.6935e-08
8.39317e-09
1.00642e-08
1.11451e-08
2.89978e-08
3.38851e-08
3.23526e-08
3.67487e-08
8.57744e-09
9.7982e-09
3.40253e-08
2.56894e-08
3.22089e-08
2.87942e-08
2.8081e-08
2.81619e-08
3.14882e-08
8.17154e-09
9.43118e-09
2.79686e-08
3.00442e-08
3.1515e-08
9.58681e-09
1.11342e-08
1.30756e-08
3.35555e-08
3.77306e-08
3.7662e-08
4.07705e-08
9.77744e-09
1.17113e-08
3.21604e-08
2.98638e-08
3.32173e-08
3.34954e-08
3.27243e-08
3.31593e-08
3.70091e-08
9.42753e-09
1.14132e-08
3.28016e-08
3.51676e-08
3.71215e-08
1.1599e-08
1.31458e-08
1.64073e-08
3.91657e-08
4.16197e-08
4.42747e-08
4.40921e-08
1.17395e-08
1.47656e-08
3.45887e-08
3.47983e-08
3.92965e-08
3.95181e-08
3.85631e-08
3.95404e-08
4.36645e-08
1.14771e-08
1.48081e-08
3.87119e-08
4.15831e-08
4.3937e-08
1.52033e-08
1.65692e-08
2.14003e-08
4.62063e-08
4.50302e-08
5.2319e-08
4.85773e-08
1.49263e-08
1.98673e-08
4.1144e-08
4.13805e-08
4.72549e-08
4.7474e-08
4.56735e-08
4.76518e-08
5.19032e-08
1.49948e-08
2.02141e-08
4.59187e-08
4.94924e-08
5.23937e-08
2.09527e-08
2.16939e-08
2.83103e-08
5.46125e-08
5.03307e-08
6.19537e-08
5.71686e-08
2.01986e-08
2.70975e-08
4.95628e-08
4.98212e-08
5.71196e-08
5.74865e-08
5.41794e-08
5.77821e-08
6.16117e-08
2.05608e-08
2.74461e-08
5.47109e-08
5.90635e-08
6.22307e-08
2.81974e-08
2.87355e-08
3.71379e-08
6.45448e-08
5.98852e-08
7.31802e-08
6.90427e-08
2.75703e-08
3.63644e-08
5.98701e-08
6.02726e-08
6.89741e-08
6.94366e-08
6.42126e-08
6.96893e-08
7.23524e-08
2.78907e-08
3.6491e-08
6.4917e-08
7.07547e-08
7.32837e-08
3.67639e-08
3.77417e-08
4.88485e-08
7.62591e-08
7.23136e-08
8.64885e-08
8.31753e-08
3.70049e-08
4.83712e-08
7.21768e-08
7.2644e-08
8.30023e-08
8.34686e-08
7.51409e-08
8.37838e-08
8.45097e-08
3.71196e-08
4.84852e-08
7.61519e-08
8.46975e-08
8.56443e-08
4.7897e-08
4.97533e-08
6.45135e-08
9.03617e-08
8.72213e-08
1.02339e-07
9.98712e-08
4.92784e-08
6.41394e-08
8.70909e-08
8.75498e-08
9.96749e-08
1.00115e-07
8.81186e-08
1.00284e-07
9.99688e-08
4.94095e-08
6.43746e-08
8.91829e-08
1.01011e-07
1.0069e-07
6.34061e-08
6.57922e-08
8.48826e-08
1.06621e-07
1.04412e-07
1.2131e-07
1.1972e-07
6.54277e-08
8.46847e-08
1.04229e-07
1.04677e-07
1.19697e-07
1.2009e-07
1.04551e-07
1.20236e-07
1.20261e-07
6.5671e-08
8.49422e-08
1.05137e-07
1.20679e-07
1.20589e-07
8.46221e-08
8.77863e-08
1.12289e-07
1.26607e-07
1.25161e-07
1.43538e-07
1.4261e-07
8.759e-08
1.12171e-07
1.25128e-07
1.25497e-07
1.42513e-07
1.42798e-07
1.25723e-07
1.42854e-07
1.42979e-07
8.78589e-08
1.12356e-07
1.26048e-07
1.43217e-07
1.43273e-07
1.1244e-07
1.17462e-07
1.50631e-07
1.49896e-07
1.49139e-07
1.71668e-07
1.71095e-07
1.17361e-07
1.50621e-07
1.49055e-07
1.49302e-07
1.71082e-07
1.71233e-07
1.49432e-07
1.71314e-07
1.71215e-07
1.17556e-07
1.50774e-07
1.49698e-07
1.71441e-07
1.71416e-07
1.50748e-07
1.58518e-07
2.08493e-07
1.79861e-07
1.79313e-07
2.08315e-07
2.07924e-07
1.58492e-07
2.08299e-07
1.79319e-07
1.79455e-07
2.0795e-07
2.08101e-07
1.79397e-07
2.08062e-07
2.07936e-07
1.58608e-07
2.08477e-07
1.79578e-07
2.08293e-07
2.08052e-07
2.08277e-07
2.20993e-07
2.96624e-07
2.1971e-07
2.19402e-07
2.60401e-07
2.60306e-07
2.20799e-07
2.96558e-07
2.19423e-07
2.19585e-07
2.60305e-07
2.6044e-07
2.19401e-07
2.6033e-07
2.60282e-07
2.2103e-07
2.9683e-07
2.19495e-07
2.60511e-07
2.60318e-07
2.96532e-07
3.14532e-07
3.98448e-07
2.75335e-07
2.75283e-07
3.19968e-07
3.19972e-07
3.14487e-07
3.98428e-07
2.75275e-07
2.75391e-07
3.19943e-07
3.20021e-07
2.75257e-07
3.19936e-07
3.19952e-07
3.1472e-07
3.98523e-07
2.75278e-07
3.19999e-07
3.19941e-07
3.98442e-07
4.14917e-07
4.81788e-07
3.34631e-07
3.34643e-07
3.76162e-07
3.76176e-07
4.14898e-07
4.81761e-07
3.34604e-07
3.3468e-07
3.76123e-07
3.762e-07
3.34624e-07
3.76097e-07
3.76158e-07
4.14976e-07
4.81824e-07
3.34603e-07
3.76137e-07
3.7612e-07
4.81812e-07
4.93917e-07
5.27096e-07
3.87819e-07
3.87834e-07
4.11991e-07
4.12002e-07
4.93885e-07
5.27054e-07
3.87778e-07
3.87856e-07
4.11947e-07
4.12022e-07
3.87817e-07
4.11908e-07
4.1199e-07
4.93945e-07
5.27116e-07
3.87775e-07
4.11949e-07
4.11944e-07
5.27124e-07
5.31723e-07
5.38087e-07
4.1661e-07
4.16623e-07
4.23596e-07
4.23603e-07
5.31679e-07
5.38039e-07
4.16566e-07
4.16642e-07
4.23548e-07
4.2362e-07
4.16611e-07
4.23503e-07
4.23595e-07
5.31738e-07
5.38096e-07
4.16565e-07
4.23545e-07
4.23549e-07
5.38116e-07
5.3961e-07
5.39764e-07
4.24545e-07
4.24555e-07
4.25752e-07
4.25764e-07
5.39561e-07
5.39712e-07
4.245e-07
4.24571e-07
4.25706e-07
4.25777e-07
4.24546e-07
4.2566e-07
4.25751e-07
5.39615e-07
5.39767e-07
4.245e-07
4.25699e-07
4.25706e-07
5.39787e-07
5.40778e-07
5.40033e-07
4.25895e-07
4.2591e-07
4.2607e-07
4.26087e-07
5.40727e-07
5.39981e-07
4.25851e-07
4.25921e-07
4.26026e-07
4.26097e-07
4.25895e-07
4.25979e-07
4.26067e-07
5.40779e-07
5.40036e-07
4.2585e-07
4.26018e-07
4.26022e-07
5.4005e-07
5.40983e-07
5.40038e-07
4.26092e-07
4.2611e-07
4.2612e-07
4.2614e-07
5.40933e-07
5.39988e-07
4.26048e-07
4.26119e-07
4.26076e-07
4.26148e-07
4.26088e-07
4.26031e-07
4.26113e-07
5.40982e-07
5.40041e-07
4.26043e-07
4.26069e-07
4.26068e-07
5.40044e-07
5.40989e-07
5.40053e-07
4.26125e-07
4.26146e-07
4.26135e-07
4.26157e-07
5.4094e-07
5.40005e-07
4.26082e-07
4.26154e-07
4.26092e-07
4.26165e-07
4.26118e-07
4.26047e-07
4.26128e-07
5.40988e-07
5.40057e-07
4.26073e-07
4.26084e-07
4.26083e-07
5.40057e-07
5.41004e-07
5.40061e-07
4.2614e-07
4.26161e-07
4.26146e-07
4.26169e-07
5.40956e-07
5.40013e-07
4.26097e-07
4.26169e-07
4.26104e-07
4.26177e-07
4.26132e-07
4.26059e-07
4.26139e-07
5.41003e-07
5.40064e-07
4.26088e-07
4.26097e-07
4.26097e-07
5.40065e-07
5.4101e-07
5.40064e-07
4.2615e-07
4.26174e-07
4.2615e-07
4.26178e-07
5.40963e-07
5.4002e-07
4.26108e-07
4.26181e-07
4.2611e-07
4.26184e-07
4.26143e-07
4.26067e-07
4.26144e-07
5.41009e-07
5.4007e-07
4.26101e-07
4.26103e-07
4.26107e-07
5.4007e-07
5.41013e-07
5.40064e-07
4.26152e-07
4.26181e-07
4.2615e-07
4.26181e-07
5.4097e-07
5.40022e-07
4.26113e-07
4.26187e-07
4.26111e-07
4.26186e-07
4.26147e-07
4.26069e-07
4.26145e-07
5.41015e-07
5.40071e-07
4.2611e-07
4.26105e-07
4.26109e-07
5.40071e-07
5.41013e-07
5.40065e-07
4.26152e-07
4.26183e-07
4.26149e-07
4.26181e-07
5.40972e-07
5.40022e-07
4.26114e-07
4.26188e-07
4.26112e-07
4.26186e-07
4.26147e-07
4.26069e-07
4.26145e-07
5.41016e-07
5.40071e-07
4.26111e-07
4.26105e-07
4.26108e-07
5.40066e-07
5.41015e-07
5.40058e-07
4.26151e-07
4.26183e-07
4.26148e-07
4.26181e-07
5.40974e-07
5.40015e-07
4.26114e-07
4.26187e-07
4.26113e-07
4.26186e-07
4.26146e-07
4.2607e-07
4.26145e-07
5.41018e-07
5.40066e-07
4.2611e-07
4.26105e-07
4.26109e-07
5.40069e-07
5.41009e-07
5.4006e-07
4.26149e-07
4.26182e-07
4.26147e-07
4.26181e-07
5.40966e-07
5.4002e-07
4.26115e-07
4.26187e-07
4.26113e-07
4.26186e-07
4.26147e-07
4.2607e-07
4.26146e-07
5.41011e-07
5.4007e-07
4.26111e-07
4.26105e-07
4.26109e-07
5.40062e-07
5.41005e-07
5.40068e-07
4.26149e-07
4.26183e-07
4.26147e-07
4.26181e-07
5.40965e-07
5.40028e-07
4.26115e-07
4.26188e-07
4.26114e-07
4.26186e-07
4.26148e-07
4.26071e-07
4.26146e-07
5.41011e-07
5.40076e-07
4.26111e-07
4.26106e-07
4.26109e-07
5.40057e-07
5.41012e-07
5.4007e-07
4.26148e-07
4.26182e-07
4.26146e-07
4.26182e-07
5.40974e-07
5.40027e-07
4.26116e-07
4.26188e-07
4.26115e-07
4.26186e-07
4.26148e-07
4.26071e-07
4.26146e-07
5.41018e-07
5.40077e-07
4.26111e-07
4.26105e-07
4.26109e-07
5.40057e-07
5.41016e-07
5.40068e-07
4.26148e-07
4.26185e-07
4.26146e-07
4.26185e-07
5.40976e-07
5.40023e-07
4.26117e-07
4.26188e-07
4.26116e-07
4.26186e-07
4.26148e-07
4.2607e-07
4.26146e-07
5.41021e-07
5.40075e-07
4.26111e-07
4.26105e-07
4.26109e-07
5.40059e-07
5.41017e-07
5.40066e-07
4.26148e-07
4.26188e-07
4.26146e-07
4.26187e-07
5.40974e-07
5.40023e-07
4.26118e-07
4.26188e-07
4.26116e-07
4.26186e-07
4.26148e-07
4.2607e-07
4.26146e-07
5.41019e-07
5.40075e-07
4.26111e-07
4.26104e-07
4.26109e-07
5.40058e-07
5.41015e-07
5.40066e-07
4.26147e-07
4.26189e-07
4.26146e-07
4.26187e-07
5.40973e-07
5.40021e-07
4.26118e-07
4.26188e-07
4.26116e-07
4.26186e-07
4.26148e-07
4.26069e-07
4.26146e-07
5.41019e-07
5.40075e-07
4.26111e-07
4.26105e-07
4.26109e-07
5.4006e-07
5.41014e-07
5.40068e-07
4.26147e-07
4.26188e-07
4.26145e-07
4.26186e-07
5.40972e-07
5.4002e-07
4.26117e-07
4.26188e-07
4.26115e-07
4.26186e-07
4.26148e-07
4.26069e-07
4.26146e-07
5.41019e-07
5.40074e-07
4.26111e-07
4.26105e-07
4.26109e-07
5.40061e-07
5.41015e-07
5.40067e-07
4.26147e-07
4.26188e-07
4.26145e-07
4.26186e-07
5.4097e-07
5.40021e-07
4.26117e-07
4.26188e-07
4.26115e-07
4.26186e-07
4.26148e-07
4.2607e-07
4.26146e-07
5.41019e-07
5.40075e-07
4.26111e-07
4.26105e-07
4.26109e-07
5.40057e-07
5.41015e-07
5.40065e-07
4.26147e-07
4.26188e-07
4.26145e-07
4.26186e-07
5.40971e-07
5.40021e-07
4.26117e-07
4.26188e-07
4.26115e-07
4.26186e-07
4.26148e-07
4.2607e-07
4.26146e-07
5.41019e-07
5.40074e-07
4.26111e-07
4.26105e-07
4.26109e-07
5.40058e-07
5.41013e-07
5.40066e-07
4.26148e-07
4.26188e-07
4.26146e-07
4.26186e-07
5.40971e-07
5.40021e-07
4.26117e-07
4.26188e-07
4.26115e-07
4.26186e-07
4.26148e-07
4.2607e-07
4.26146e-07
5.41019e-07
5.40075e-07
4.26111e-07
4.26105e-07
4.26109e-07
5.40058e-07
5.41013e-07
5.40067e-07
4.26147e-07
4.26188e-07
4.26145e-07
4.26187e-07
5.40971e-07
5.40022e-07
4.26117e-07
4.26188e-07
4.26115e-07
4.26186e-07
4.26147e-07
4.26071e-07
4.26146e-07
5.41019e-07
5.40075e-07
4.26111e-07
4.26105e-07
4.26109e-07
5.40056e-07
5.41014e-07
5.4007e-07
4.26147e-07
4.26189e-07
4.26144e-07
4.26186e-07
5.40972e-07
5.40024e-07
4.26117e-07
4.26188e-07
4.26116e-07
4.26186e-07
4.26147e-07
4.26071e-07
4.26145e-07
5.41019e-07
5.40074e-07
4.26111e-07
4.26106e-07
4.26109e-07
5.40055e-07
5.41014e-07
5.40069e-07
4.26147e-07
4.26187e-07
4.26145e-07
4.26184e-07
5.40974e-07
5.40026e-07
4.26118e-07
4.26188e-07
4.26117e-07
4.26187e-07
4.26147e-07
4.26069e-07
4.26146e-07
5.41019e-07
5.40074e-07
4.26111e-07
4.26105e-07
4.2611e-07
5.40055e-07
5.41014e-07
5.4007e-07
4.26147e-07
4.26185e-07
4.26144e-07
4.26182e-07
5.40974e-07
5.40025e-07
4.26119e-07
4.26189e-07
4.26117e-07
4.26187e-07
4.26148e-07
4.26067e-07
4.26146e-07
5.41019e-07
5.40075e-07
4.26112e-07
4.26106e-07
4.2611e-07
5.40056e-07
5.41013e-07
5.40072e-07
4.26146e-07
4.26184e-07
4.26145e-07
4.26182e-07
5.40972e-07
5.40026e-07
4.26119e-07
4.26189e-07
4.26117e-07
4.26187e-07
4.26148e-07
4.26066e-07
4.26146e-07
5.41019e-07
5.40075e-07
4.26112e-07
4.26105e-07
4.2611e-07
5.40056e-07
5.41016e-07
5.40072e-07
4.26147e-07
4.26183e-07
4.26146e-07
4.26181e-07
5.40973e-07
5.40026e-07
4.26118e-07
4.26188e-07
4.26117e-07
4.26187e-07
4.26148e-07
4.26066e-07
4.26146e-07
5.4102e-07
5.40075e-07
4.26112e-07
4.26105e-07
4.2611e-07
5.40057e-07
5.41017e-07
5.40071e-07
4.26149e-07
4.26183e-07
4.26148e-07
4.26181e-07
5.40973e-07
5.40025e-07
4.26118e-07
4.26188e-07
4.26116e-07
4.26187e-07
4.26148e-07
4.26067e-07
4.26145e-07
5.41019e-07
5.40075e-07
4.26111e-07
4.26105e-07
4.26109e-07
5.40057e-07
5.41015e-07
5.40073e-07
4.26151e-07
4.26183e-07
4.26149e-07
4.26181e-07
5.40972e-07
5.40026e-07
4.26118e-07
4.26188e-07
4.26116e-07
4.26186e-07
4.26147e-07
4.26067e-07
4.26145e-07
5.4102e-07
5.40074e-07
4.26111e-07
4.26104e-07
4.26109e-07
5.40055e-07
5.41017e-07
5.40072e-07
4.26151e-07
4.26183e-07
4.2615e-07
4.26181e-07
5.40973e-07
5.40027e-07
4.26118e-07
4.26188e-07
4.26116e-07
4.26186e-07
4.26147e-07
4.26067e-07
4.26145e-07
5.41019e-07
5.40075e-07
4.26111e-07
4.26105e-07
4.26109e-07
5.40058e-07
5.41017e-07
5.40073e-07
4.26153e-07
4.26183e-07
4.26151e-07
4.26182e-07
5.40974e-07
5.40028e-07
4.26117e-07
4.26188e-07
4.26115e-07
4.26186e-07
4.26147e-07
4.26068e-07
4.26145e-07
5.41019e-07
5.40074e-07
4.26111e-07
4.26105e-07
4.26109e-07
5.4006e-07
5.41017e-07
5.40074e-07
4.26153e-07
4.26184e-07
4.26152e-07
4.26182e-07
5.40975e-07
5.40028e-07
4.26117e-07
4.26188e-07
4.26115e-07
4.26187e-07
4.26147e-07
4.26068e-07
4.26145e-07
5.41018e-07
5.40075e-07
4.26111e-07
4.26106e-07
4.26109e-07
5.40058e-07
5.41018e-07
5.40074e-07
4.26154e-07
4.26184e-07
4.26152e-07
4.26182e-07
5.40975e-07
5.40029e-07
4.26116e-07
4.26188e-07
4.26115e-07
4.26187e-07
4.26147e-07
4.26068e-07
4.26145e-07
5.41019e-07
5.40075e-07
4.2611e-07
4.26105e-07
4.26109e-07
5.40056e-07
5.41018e-07
5.40075e-07
4.26154e-07
4.26184e-07
4.26153e-07
4.26182e-07
5.40976e-07
5.4003e-07
4.26116e-07
4.26188e-07
4.26114e-07
4.26186e-07
4.26147e-07
4.26068e-07
4.26146e-07
5.4102e-07
5.40075e-07
4.26111e-07
4.26104e-07
4.26109e-07
5.40055e-07
5.41019e-07
5.40075e-07
4.26156e-07
4.26184e-07
4.26154e-07
4.26182e-07
5.40977e-07
5.40029e-07
4.26116e-07
4.26188e-07
4.26114e-07
4.26186e-07
4.26147e-07
4.2607e-07
4.26146e-07
5.41019e-07
5.40074e-07
4.2611e-07
4.26106e-07
4.26109e-07
5.40056e-07
5.41019e-07
5.40075e-07
4.26155e-07
4.26185e-07
4.26154e-07
4.26183e-07
5.40977e-07
5.40029e-07
4.26116e-07
4.26187e-07
4.26114e-07
4.26186e-07
4.26148e-07
4.26069e-07
4.26146e-07
5.41018e-07
5.40074e-07
4.2611e-07
4.26104e-07
4.26108e-07
5.40057e-07
5.4102e-07
5.40076e-07
4.26156e-07
4.26184e-07
4.26154e-07
4.26182e-07
5.40977e-07
5.40029e-07
4.26116e-07
4.26187e-07
4.26114e-07
4.26186e-07
4.26148e-07
4.26069e-07
4.26146e-07
5.41018e-07
5.40075e-07
4.2611e-07
4.26104e-07
4.26108e-07
5.40058e-07
5.41021e-07
5.40075e-07
4.26156e-07
4.26184e-07
4.26154e-07
4.26183e-07
5.40976e-07
5.4003e-07
4.26116e-07
4.26188e-07
4.26114e-07
4.26186e-07
4.26148e-07
4.26069e-07
4.26146e-07
5.41019e-07
5.40074e-07
4.26109e-07
4.26104e-07
4.26107e-07
5.40056e-07
5.4102e-07
5.40075e-07
4.26156e-07
4.26184e-07
4.26154e-07
4.26183e-07
5.40977e-07
5.40031e-07
4.26116e-07
4.26189e-07
4.26114e-07
4.26187e-07
4.26147e-07
4.26068e-07
4.26145e-07
5.41019e-07
5.40073e-07
4.26109e-07
4.26104e-07
4.26106e-07
5.40059e-07
5.41019e-07
5.40075e-07
4.26155e-07
4.26185e-07
4.26154e-07
4.26183e-07
5.40978e-07
5.4003e-07
4.26115e-07
4.26188e-07
4.26114e-07
4.26186e-07
4.26147e-07
4.26068e-07
4.26145e-07
5.41018e-07
5.40074e-07
4.26108e-07
4.26105e-07
4.26106e-07
5.4006e-07
5.41019e-07
5.40074e-07
4.26155e-07
4.26185e-07
4.26153e-07
4.26183e-07
5.40977e-07
5.40029e-07
4.26115e-07
4.26188e-07
4.26113e-07
4.26187e-07
4.26146e-07
4.26068e-07
4.26144e-07
5.41018e-07
5.40075e-07
4.26107e-07
4.26104e-07
4.26105e-07
5.40057e-07
5.41019e-07
5.40076e-07
4.26155e-07
4.26184e-07
4.26153e-07
4.26183e-07
5.40977e-07
5.4003e-07
4.26115e-07
4.26188e-07
4.26113e-07
4.26186e-07
4.26146e-07
4.26068e-07
4.26144e-07
5.41019e-07
5.40075e-07
4.26106e-07
4.26105e-07
4.26104e-07
5.40054e-07
5.41019e-07
5.40075e-07
4.26155e-07
4.26184e-07
4.26153e-07
4.26182e-07
5.40977e-07
5.4003e-07
4.26115e-07
4.26188e-07
4.26113e-07
4.26186e-07
4.26146e-07
4.26068e-07
4.26145e-07
5.4102e-07
5.40074e-07
4.26106e-07
4.26105e-07
4.26105e-07
5.40053e-07
5.4102e-07
5.40074e-07
4.26155e-07
4.26184e-07
4.26153e-07
4.26182e-07
5.40977e-07
5.4003e-07
4.26114e-07
4.26187e-07
4.26112e-07
4.26186e-07
4.26146e-07
4.26067e-07
4.26145e-07
5.41019e-07
5.40074e-07
4.26107e-07
4.26106e-07
4.26105e-07
5.40054e-07
5.41019e-07
5.40074e-07
4.26155e-07
4.26184e-07
4.26153e-07
4.26182e-07
5.40977e-07
5.4003e-07
4.26114e-07
4.26187e-07
4.26112e-07
4.26186e-07
4.26146e-07
4.26067e-07
4.26145e-07
5.41018e-07
5.40074e-07
4.26107e-07
4.26105e-07
4.26105e-07
5.40053e-07
5.41018e-07
5.40074e-07
4.26155e-07
4.26184e-07
4.26153e-07
4.26182e-07
5.40977e-07
5.40029e-07
4.26113e-07
4.26188e-07
4.26112e-07
4.26186e-07
4.26147e-07
4.26067e-07
4.26145e-07
5.41019e-07
5.40074e-07
4.26107e-07
4.26104e-07
4.26105e-07
5.40055e-07
5.41019e-07
5.40074e-07
4.26155e-07
4.26184e-07
4.26153e-07
4.26182e-07
5.40976e-07
5.40029e-07
4.26113e-07
4.26188e-07
4.26112e-07
4.26187e-07
4.26147e-07
4.26067e-07
4.26145e-07
5.41019e-07
5.40074e-07
4.26107e-07
4.26104e-07
4.26105e-07
5.40055e-07
5.41019e-07
5.40074e-07
4.26155e-07
4.26184e-07
4.26153e-07
4.26182e-07
5.40976e-07
5.40029e-07
4.26113e-07
4.26189e-07
4.26112e-07
4.26187e-07
4.26147e-07
4.26066e-07
4.26145e-07
5.41018e-07
5.40075e-07
4.26107e-07
4.26104e-07
4.26106e-07
5.40057e-07
5.41019e-07
5.40074e-07
4.26155e-07
4.26184e-07
4.26153e-07
4.26182e-07
5.40976e-07
5.40029e-07
4.26113e-07
4.26188e-07
4.26112e-07
4.26186e-07
4.26147e-07
4.26067e-07
4.26145e-07
5.41019e-07
5.40074e-07
4.26107e-07
4.26104e-07
4.26106e-07
5.40061e-07
5.41019e-07
5.40074e-07
4.26155e-07
4.26183e-07
4.26154e-07
4.26182e-07
5.40976e-07
5.40029e-07
4.26114e-07
4.26188e-07
4.26111e-07
4.26186e-07
4.26147e-07
4.26067e-07
4.26145e-07
5.41019e-07
5.40075e-07
4.26108e-07
4.26104e-07
4.26106e-07
5.40058e-07
5.41019e-07
5.40074e-07
4.26155e-07
4.26183e-07
4.26153e-07
4.26182e-07
5.40976e-07
5.40029e-07
4.26113e-07
4.26188e-07
4.26112e-07
4.26186e-07
4.26147e-07
4.26067e-07
4.26145e-07
5.41019e-07
5.40075e-07
4.26107e-07
4.26104e-07
4.26105e-07
5.40057e-07
5.41018e-07
5.40075e-07
4.26155e-07
4.26184e-07
4.26154e-07
4.26182e-07
5.40976e-07
5.40029e-07
4.26113e-07
4.26188e-07
4.26112e-07
4.26186e-07
4.26146e-07
4.26067e-07
4.26145e-07
5.41019e-07
5.40073e-07
4.26107e-07
4.26103e-07
4.26105e-07
5.40057e-07
5.41019e-07
5.40075e-07
4.26156e-07
4.26184e-07
4.26154e-07
4.26182e-07
5.40976e-07
5.40029e-07
4.26114e-07
4.26188e-07
4.26112e-07
4.26186e-07
4.26147e-07
4.26067e-07
4.26145e-07
5.41018e-07
5.40073e-07
4.26107e-07
4.26104e-07
4.26106e-07
5.40052e-07
5.41019e-07
5.40074e-07
4.26156e-07
4.26184e-07
4.26154e-07
4.26182e-07
5.40976e-07
5.40029e-07
4.26114e-07
4.26188e-07
4.26112e-07
4.26186e-07
4.26147e-07
4.26068e-07
4.26145e-07
5.41018e-07
5.40074e-07
4.26107e-07
4.26105e-07
4.26105e-07
5.40054e-07
5.41019e-07
5.40074e-07
4.26156e-07
4.26184e-07
4.26154e-07
4.26182e-07
5.40977e-07
5.40029e-07
4.26114e-07
4.26188e-07
4.26113e-07
4.26186e-07
4.26147e-07
4.26068e-07
4.26145e-07
5.41018e-07
5.40075e-07
4.26107e-07
4.26105e-07
4.26105e-07
5.40058e-07
5.41019e-07
5.40075e-07
4.26156e-07
4.26184e-07
4.26154e-07
4.26182e-07
5.40976e-07
5.40029e-07
4.26114e-07
4.26188e-07
4.26112e-07
4.26186e-07
4.26147e-07
4.26069e-07
4.26145e-07
5.4102e-07
5.40075e-07
4.26107e-07
4.26105e-07
4.26105e-07
5.40057e-07
5.41019e-07
5.40075e-07
4.26156e-07
4.26184e-07
4.26154e-07
4.26182e-07
5.40976e-07
5.4003e-07
4.26114e-07
4.26188e-07
4.26112e-07
4.26186e-07
4.26147e-07
4.26069e-07
4.26145e-07
5.41019e-07
5.40075e-07
4.26107e-07
4.26104e-07
4.26105e-07
5.40052e-07
5.41019e-07
5.40075e-07
4.26155e-07
4.26184e-07
4.26153e-07
4.26182e-07
5.40977e-07
5.40029e-07
4.26114e-07
4.26188e-07
4.26112e-07
4.26186e-07
4.26147e-07
4.26069e-07
4.26145e-07
5.41019e-07
5.40075e-07
4.26107e-07
4.26104e-07
4.26105e-07
5.40054e-07
5.41019e-07
5.40075e-07
4.26155e-07
4.26184e-07
4.26153e-07
4.26182e-07
5.40976e-07
5.40029e-07
4.26114e-07
4.26188e-07
4.26111e-07
4.26186e-07
4.26147e-07
4.26068e-07
4.26145e-07
5.4102e-07
5.40074e-07
4.26107e-07
4.26104e-07
4.26105e-07
5.40058e-07
5.41019e-07
5.40075e-07
4.26155e-07
4.26184e-07
4.26153e-07
4.26182e-07
5.40976e-07
5.4003e-07
4.26113e-07
4.26188e-07
4.26111e-07
4.26186e-07
4.26147e-07
4.2607e-07
4.26145e-07
5.41019e-07
5.40074e-07
4.26107e-07
4.26105e-07
4.26105e-07
5.40058e-07
5.4102e-07
5.40074e-07
4.26155e-07
4.26184e-07
4.26152e-07
4.26181e-07
5.40978e-07
5.40029e-07
4.26113e-07
4.26188e-07
4.2611e-07
4.26185e-07
4.26147e-07
4.2607e-07
4.26144e-07
5.41019e-07
5.40074e-07
4.26107e-07
4.26106e-07
4.26104e-07
5.40055e-07
5.41018e-07
5.40073e-07
4.26155e-07
4.26184e-07
4.26153e-07
4.26182e-07
5.40977e-07
5.40029e-07
4.26113e-07
4.26188e-07
4.26111e-07
4.26185e-07
4.26147e-07
4.2607e-07
4.26145e-07
5.41018e-07
5.40075e-07
4.26107e-07
4.26107e-07
4.26105e-07
5.40054e-07
5.41018e-07
5.40074e-07
4.26156e-07
4.26185e-07
4.26153e-07
4.26182e-07
5.40976e-07
5.4003e-07
4.26114e-07
4.26188e-07
4.26112e-07
4.26186e-07
4.26148e-07
4.26072e-07
4.26146e-07
5.41019e-07
5.40075e-07
4.26108e-07
4.26109e-07
4.26106e-07
5.40054e-07
5.41018e-07
5.40074e-07
4.26156e-07
4.26185e-07
4.26154e-07
4.26183e-07
5.40977e-07
5.4003e-07
4.26115e-07
4.26189e-07
4.26113e-07
4.26187e-07
4.26149e-07
4.26072e-07
4.26147e-07
5.4102e-07
5.40075e-07
4.26109e-07
4.26109e-07
4.26106e-07
5.40059e-07
5.41019e-07
5.40074e-07
4.26158e-07
4.26186e-07
4.26155e-07
4.26183e-07
5.40978e-07
5.4003e-07
4.26116e-07
4.2619e-07
4.26114e-07
4.26187e-07
4.2615e-07
4.26072e-07
4.26147e-07
5.4102e-07
5.40075e-07
4.2611e-07
4.26109e-07
4.26107e-07
5.4006e-07
5.41019e-07
5.40075e-07
4.2616e-07
4.26188e-07
4.26157e-07
4.26185e-07
5.40977e-07
5.4003e-07
4.26118e-07
4.26192e-07
4.26115e-07
4.26189e-07
4.26151e-07
4.26073e-07
4.26147e-07
5.4102e-07
5.40075e-07
4.26111e-07
4.2611e-07
4.26107e-07
5.40058e-07
5.41019e-07
5.40076e-07
4.26163e-07
4.26191e-07
4.26159e-07
4.26186e-07
5.40978e-07
5.4003e-07
4.26121e-07
4.26195e-07
4.26117e-07
4.2619e-07
4.26153e-07
4.26073e-07
4.26149e-07
5.4102e-07
5.40076e-07
4.26113e-07
4.2611e-07
4.26108e-07
5.40053e-07
5.4102e-07
5.40078e-07
4.26165e-07
4.26192e-07
4.26159e-07
4.26187e-07
5.40978e-07
5.40031e-07
4.26124e-07
4.26197e-07
4.26118e-07
4.26191e-07
4.26155e-07
4.26074e-07
4.2615e-07
5.41021e-07
5.40076e-07
4.26115e-07
4.2611e-07
4.26109e-07
5.40057e-07
5.41022e-07
5.40076e-07
4.26167e-07
4.26194e-07
4.26159e-07
4.26186e-07
5.40978e-07
5.4003e-07
4.26126e-07
4.26199e-07
4.26118e-07
4.26191e-07
4.26158e-07
4.26073e-07
4.2615e-07
5.41021e-07
5.40077e-07
4.26117e-07
4.2611e-07
4.26109e-07
5.40061e-07
5.41021e-07
5.40075e-07
4.26168e-07
4.26195e-07
4.26158e-07
4.26185e-07
5.40978e-07
5.4003e-07
4.26127e-07
4.262e-07
4.26116e-07
4.26189e-07
4.2616e-07
4.26072e-07
4.26149e-07
5.41019e-07
5.40077e-07
4.26119e-07
4.26109e-07
4.26108e-07
5.40059e-07
5.4102e-07
5.40074e-07
4.26169e-07
4.26196e-07
4.26154e-07
4.26182e-07
5.40978e-07
5.40029e-07
4.26128e-07
4.26201e-07
4.26113e-07
4.26186e-07
4.2616e-07
4.26069e-07
4.26145e-07
5.4102e-07
5.40075e-07
4.26119e-07
4.26105e-07
4.26104e-07
5.40054e-07
5.41018e-07
5.40073e-07
4.26169e-07
4.26196e-07
4.26149e-07
4.26176e-07
5.40976e-07
5.40026e-07
4.26127e-07
4.262e-07
4.26108e-07
4.2618e-07
4.2616e-07
4.26063e-07
4.2614e-07
5.41017e-07
5.40072e-07
4.26118e-07
4.26099e-07
4.26098e-07
5.40052e-07
5.41017e-07
5.40068e-07
4.26167e-07
4.26194e-07
4.26139e-07
4.26167e-07
5.40974e-07
5.40023e-07
4.26126e-07
4.26198e-07
4.26098e-07
4.2617e-07
4.26158e-07
4.26053e-07
4.2613e-07
5.41014e-07
5.40067e-07
4.26116e-07
4.26089e-07
4.26088e-07
5.40051e-07
5.41011e-07
5.40061e-07
4.26161e-07
4.26189e-07
4.26122e-07
4.2615e-07
5.40968e-07
5.40018e-07
4.26121e-07
4.26193e-07
4.26081e-07
4.26153e-07
4.26152e-07
4.26036e-07
4.26113e-07
5.41007e-07
5.40059e-07
4.2611e-07
4.26072e-07
4.26071e-07
5.40046e-07
5.41e-07
5.40051e-07
4.2615e-07
4.26178e-07
4.26092e-07
4.26117e-07
5.40959e-07
5.40007e-07
4.26109e-07
4.26182e-07
4.26051e-07
4.26123e-07
4.26141e-07
4.26005e-07
4.26081e-07
5.40998e-07
5.40054e-07
4.26099e-07
4.26041e-07
4.26037e-07
5.40034e-07
5.40979e-07
5.39953e-07
4.26125e-07
4.26149e-07
4.25908e-07
4.2593e-07
5.40938e-07
5.39911e-07
4.26084e-07
4.26154e-07
4.25863e-07
4.25933e-07
4.26114e-07
4.25822e-07
4.25898e-07
5.40979e-07
5.39958e-07
4.26069e-07
4.25853e-07
4.25846e-07
5.39917e-07
5.40827e-07
5.31607e-07
4.26085e-07
4.26106e-07
4.1866e-07
4.18681e-07
5.4079e-07
5.31581e-07
4.26039e-07
4.26114e-07
4.18635e-07
4.18666e-07
4.26077e-07
4.18607e-07
4.18644e-07
5.40828e-07
5.31602e-07
4.26023e-07
4.18616e-07
4.18614e-07
5.31583e-07
5.21648e-07
4.11591e-07
4.11609e-07
5.2163e-07
4.11574e-07
4.11594e-07
3.14751e-07
3.14748e-07
3.14743e-07
4.11575e-07
5.21643e-07
4.11555e-07
2.73114e-07
8.44358e-08
2.11947e-07
2.11636e-07
8.11801e-10
1.82165e-08
1.39806e-07
1.45332e-07
9.11186e-10
1.57927e-08
1.45772e-07
2.05841e-08
8.45319e-09
1.0182e-08
4.72769e-09
6.3588e-09
1.75087e-07
4.11672e-09
2.68062e-07
1.63569e-06
3.17333e-06
6.46894e-09
2.40183e-07
4.34934e-09
3.63128e-07
1.43716e-07
1.43954e-07
1.44845e-07
1.45602e-07
1.44959e-07
1.45228e-07
1.46086e-07
8.53471e-10
2.02816e-07
7.14663e-08
2.74188e-08
8.29133e-10
1.76872e-07
7.15461e-08
1.67101e-06
3.21058e-06
9.283e-10
7.33564e-08
9.73771e-08
2.11277e-08
9.1366e-10
7.32961e-08
7.71061e-08
2.11228e-07
2.15139e-07
7.91279e-09
1.87867e-07
1.84593e-07
1.59873e-08
4.87858e-07
9.94244e-09
7.0522e-07
7.1352e-06
1.02727e-05
1.64624e-08
6.71266e-07
1.02348e-08
9.61959e-07
1.46319e-07