/*--------------------------------*- C++ -*----------------------------------*\
| =========                 |                                                 |
| \\      /  F ield         | OpenFOAM: The Open Source CFD Toolbox           |
|  \\    /   O peration     | Version:  v1906                                 |
|   \\  /    A nd           | Web:      www.OpenFOAM.com                      |
|    \\/     M anipulation  |                                                 |
\*---------------------------------------------------------------------------*/
FoamFile
{
    version     2.0;
    format      ascii;
    class       volScalarField;
    location    "75";
    object      k;
}
// * * * * * * * * * * * * * * * * * * * * * * * * * * * * * * * * * * * * * //

dimensions      [0 2 -2 0 0 0 0];


internalField   nonuniform List<scalar> 
171728
(
9.84143e-06
1.83464e-06
1.44449e-06
4.36541e-07
1.00202e-05
1.78296e-06
1.63192e-06
4.41958e-07
1.03821e-05
1.89303e-06
1.90605e-06
4.92488e-07
1.07546e-05
2.2043e-06
2.25228e-06
5.84899e-07
1.1128e-05
2.60852e-06
2.67322e-06
7.40619e-07
1.14988e-05
3.1107e-06
3.18742e-06
1.03784e-06
1.18609e-05
3.72413e-06
3.78413e-06
1.48678e-06
1.22221e-05
4.4611e-06
4.48949e-06
1.99217e-06
1.25935e-05
5.2761e-06
5.33421e-06
2.58346e-06
1.29963e-05
6.2673e-06
6.32082e-06
3.38629e-06
1.34367e-05
7.37177e-06
7.4161e-06
4.45704e-06
1.40176e-05
8.71613e-06
8.73456e-06
5.88653e-06
1.47031e-05
1.01671e-05
1.01858e-05
7.69816e-06
1.55822e-05
1.19181e-05
1.19223e-05
9.97475e-06
1.66083e-05
1.39941e-05
1.40048e-05
1.28423e-05
1.78374e-05
1.66125e-05
1.66196e-05
1.65367e-05
1.89264e-05
1.91166e-05
1.91188e-05
2.01622e-05
1.99679e-05
2.15028e-05
2.15039e-05
2.3269e-05
2.0672e-05
2.28989e-05
2.28998e-05
2.49035e-05
2.0929e-05
2.33162e-05
2.33171e-05
2.53018e-05
2.0985e-05
2.33911e-05
2.33919e-05
2.53599e-05
2.09941e-05
2.34025e-05
2.34032e-05
2.5371e-05
2.09957e-05
2.34042e-05
2.3405e-05
2.5371e-05
2.09962e-05
2.34046e-05
2.34054e-05
2.53714e-05
2.09965e-05
2.34049e-05
2.34057e-05
2.53716e-05
2.09968e-05
2.34052e-05
2.3406e-05
2.53719e-05
2.09971e-05
2.34055e-05
2.34063e-05
2.53721e-05
2.09973e-05
2.34057e-05
2.34065e-05
2.53718e-05
2.09974e-05
2.34058e-05
2.34066e-05
2.5372e-05
2.09975e-05
2.34058e-05
2.34065e-05
2.53718e-05
2.09975e-05
2.34058e-05
2.34066e-05
2.53714e-05
2.09976e-05
2.34059e-05
2.34066e-05
2.53712e-05
2.09976e-05
2.34058e-05
2.34065e-05
2.53711e-05
2.09975e-05
2.34058e-05
2.34065e-05
2.53709e-05
2.09975e-05
2.34058e-05
2.34065e-05
2.53708e-05
2.09976e-05
2.34058e-05
2.34065e-05
2.53709e-05
2.09976e-05
2.34058e-05
2.34065e-05
2.53707e-05
2.09976e-05
2.34058e-05
2.34065e-05
2.53707e-05
2.09975e-05
2.34058e-05
2.34065e-05
2.53708e-05
2.09976e-05
2.34058e-05
2.34065e-05
2.53707e-05
2.09976e-05
2.34059e-05
2.34065e-05
2.53706e-05
2.09976e-05
2.34058e-05
2.34065e-05
2.53706e-05
2.09975e-05
2.34058e-05
2.34065e-05
2.53707e-05
2.09975e-05
2.34058e-05
2.34064e-05
2.53707e-05
2.09975e-05
2.34057e-05
2.34064e-05
2.53707e-05
2.09976e-05
2.34058e-05
2.34064e-05
2.53707e-05
2.09976e-05
2.34058e-05
2.34064e-05
2.53706e-05
2.09975e-05
2.34058e-05
2.34065e-05
2.53707e-05
2.09975e-05
2.34059e-05
2.34065e-05
2.53708e-05
2.09975e-05
2.34059e-05
2.34065e-05
2.53707e-05
2.09975e-05
2.34059e-05
2.34064e-05
2.53707e-05
2.09976e-05
2.34059e-05
2.34065e-05
2.53706e-05
2.09976e-05
2.34059e-05
2.34065e-05
2.53706e-05
2.09976e-05
2.34059e-05
2.34065e-05
2.53706e-05
2.09975e-05
2.34059e-05
2.34064e-05
2.53707e-05
2.09975e-05
2.34059e-05
2.34064e-05
2.53706e-05
2.09976e-05
2.34059e-05
2.34064e-05
2.53707e-05
2.09975e-05
2.34058e-05
2.34064e-05
2.53708e-05
2.09975e-05
2.34059e-05
2.34065e-05
2.53707e-05
2.09974e-05
2.34059e-05
2.34065e-05
2.53706e-05
2.09974e-05
2.34059e-05
2.34065e-05
2.53705e-05
2.09974e-05
2.34058e-05
2.34065e-05
2.53706e-05
2.09973e-05
2.34058e-05
2.34065e-05
2.53705e-05
2.09973e-05
2.34058e-05
2.34065e-05
2.53706e-05
2.09974e-05
2.34058e-05
2.34064e-05
2.53706e-05
2.09975e-05
2.34058e-05
2.34064e-05
2.53706e-05
2.09975e-05
2.34058e-05
2.34064e-05
2.53708e-05
2.09975e-05
2.34058e-05
2.34064e-05
2.53707e-05
2.09975e-05
2.34058e-05
2.34064e-05
2.53706e-05
2.09976e-05
2.34058e-05
2.34064e-05
2.53707e-05
2.09975e-05
2.34058e-05
2.34064e-05
2.53706e-05
2.09975e-05
2.34058e-05
2.34065e-05
2.53705e-05
2.09975e-05
2.34059e-05
2.34065e-05
2.53707e-05
2.09975e-05
2.34059e-05
2.34065e-05
2.53707e-05
2.09974e-05
2.34059e-05
2.34064e-05
2.53705e-05
2.09974e-05
2.34059e-05
2.34064e-05
2.53705e-05
2.09974e-05
2.34059e-05
2.34064e-05
2.53707e-05
2.09974e-05
2.3406e-05
2.34064e-05
2.53707e-05
2.09974e-05
2.3406e-05
2.34065e-05
2.53706e-05
2.09976e-05
2.3406e-05
2.34066e-05
2.53706e-05
2.09976e-05
2.3406e-05
2.34066e-05
2.53706e-05
2.09977e-05
2.34061e-05
2.34066e-05
2.53707e-05
2.09978e-05
2.34061e-05
2.34066e-05
2.53708e-05
2.09979e-05
2.34061e-05
2.34066e-05
2.53708e-05
2.09979e-05
2.34061e-05
2.34067e-05
2.53706e-05
2.09979e-05
2.34062e-05
2.34068e-05
2.53707e-05
2.09979e-05
2.34063e-05
2.34069e-05
2.53709e-05
2.0998e-05
2.34063e-05
2.34069e-05
2.53709e-05
2.0998e-05
2.34064e-05
2.3407e-05
2.53708e-05
2.0998e-05
2.34066e-05
2.34071e-05
2.53708e-05
2.09981e-05
2.34068e-05
2.34073e-05
2.5371e-05
2.09982e-05
2.34071e-05
2.34076e-05
2.53712e-05
2.09983e-05
2.34075e-05
2.3408e-05
2.53712e-05
2.09972e-05
2.34058e-05
2.34062e-05
2.53688e-05
2.09343e-05
2.308e-05
2.30799e-05
2.50459e-05
4.5742e-07
1.16236e-06
1.13265e-06
4.42153e-07
1.21139e-06
1.04805e-06
9.96065e-06
9.92934e-06
9.93098e-06
9.95521e-06
1.16749e-06
1.07452e-06
3.86965e-07
1.04378e-06
1.03148e-06
4.41395e-07
4.56484e-07
5.09046e-07
1.52282e-06
1.64491e-06
1.66505e-06
1.77618e-06
4.37754e-07
4.51365e-07
1.91087e-06
1.4586e-06
2.01934e-06
1.57504e-06
1.47686e-06
1.78422e-06
1.59839e-06
3.8615e-07
4.17282e-07
1.44269e-06
1.56888e-06
1.5732e-06
4.4565e-07
5.07348e-07
5.97795e-07
1.73482e-06
1.84064e-06
1.96523e-06
2.05384e-06
4.47331e-07
5.05562e-07
2.06921e-06
1.635e-06
2.18515e-06
1.84104e-06
1.66041e-06
1.84293e-06
1.86497e-06
4.15091e-07
4.89578e-07
1.6389e-06
1.83426e-06
1.85537e-06
4.95091e-07
5.96027e-07
6.99896e-07
2.04487e-06
2.13027e-06
2.30887e-06
2.39375e-06
5.02808e-07
6.04313e-07
2.2072e-06
1.91591e-06
2.24153e-06
2.15687e-06
1.93615e-06
2.12156e-06
2.18671e-06
4.8812e-07
5.96148e-07
1.93212e-06
2.16328e-06
2.19661e-06
5.86186e-07
7.00235e-07
8.74256e-07
2.40303e-06
2.48736e-06
2.72018e-06
2.79832e-06
6.0362e-07
7.70538e-07
2.2613e-06
2.23744e-06
2.45707e-06
2.50425e-06
2.27821e-06
2.49831e-06
2.59272e-06
5.95959e-07
7.55506e-07
2.2923e-06
2.56032e-06
2.60999e-06
7.3589e-07
8.80249e-07
1.14249e-06
2.83471e-06
2.90049e-06
3.21461e-06
3.18757e-06
7.75596e-07
1.04231e-06
2.55647e-06
2.60045e-06
2.90632e-06
2.94402e-06
2.70602e-06
2.97324e-06
3.07998e-06
7.60946e-07
1.03117e-06
2.72532e-06
3.04776e-06
3.10572e-06
1.02115e-06
1.15538e-06
1.52501e-06
3.35552e-06
3.28144e-06
3.79297e-06
3.5838e-06
1.05691e-06
1.44625e-06
3.04217e-06
3.08104e-06
3.49266e-06
3.52506e-06
3.22683e-06
3.56214e-06
3.68479e-06
1.04659e-06
1.45265e-06
3.24906e-06
3.62527e-06
3.71874e-06
1.4625e-06
1.54553e-06
2.01224e-06
3.95322e-06
3.71341e-06
4.45398e-06
4.19503e-06
1.46882e-06
1.94425e-06
3.65948e-06
3.69249e-06
4.19177e-06
4.2318e-06
3.85041e-06
4.26842e-06
4.3767e-06
1.47727e-06
1.96033e-06
3.88686e-06
4.30065e-06
4.41433e-06
1.96749e-06
2.03814e-06
2.59624e-06
4.62942e-06
4.38359e-06
5.20689e-06
5.00566e-06
1.9718e-06
2.5539e-06
4.38206e-06
4.42458e-06
4.99885e-06
5.04199e-06
4.56125e-06
5.06349e-06
5.14138e-06
1.98692e-06
2.56428e-06
4.60057e-06
5.11626e-06
5.18533e-06
2.54702e-06
2.63336e-06
3.39119e-06
5.41489e-06
5.22716e-06
6.10635e-06
5.95496e-06
2.59409e-06
3.3679e-06
5.21566e-06
5.2571e-06
5.93913e-06
5.97496e-06
5.34244e-06
5.99669e-06
5.99989e-06
2.60361e-06
3.37945e-06
5.3902e-06
6.05581e-06
6.05947e-06
3.3302e-06
3.44964e-06
4.44265e-06
6.36792e-06
6.2229e-06
7.17295e-06
7.05591e-06
3.42476e-06
4.41774e-06
6.21047e-06
6.2444e-06
7.04088e-06
7.07083e-06
6.24587e-06
7.0827e-06
7.03786e-06
3.4379e-06
4.43538e-06
6.30287e-06
7.12693e-06
7.07611e-06
4.37507e-06
4.52155e-06
5.79517e-06
7.45538e-06
7.35141e-06
8.40986e-06
8.33598e-06
4.4973e-06
5.78082e-06
7.33732e-06
7.36707e-06
8.33589e-06
8.36173e-06
7.34032e-06
8.37159e-06
8.36935e-06
4.51493e-06
5.79767e-06
7.37004e-06
8.39576e-06
8.3823e-06
5.77251e-06
5.905e-06
7.46085e-06
8.74828e-06
8.68053e-06
9.80309e-06
9.75793e-06
5.89226e-06
7.45554e-06
8.6813e-06
8.70423e-06
9.75507e-06
9.76715e-06
8.71904e-06
9.77645e-06
9.78469e-06
5.90877e-06
7.46461e-06
8.73223e-06
9.79659e-06
9.79908e-06
7.47856e-06
7.67922e-06
9.59083e-06
1.01914e-05
1.01549e-05
1.14792e-05
1.14538e-05
7.67421e-06
9.58988e-06
1.01525e-05
1.0161e-05
1.14561e-05
1.14578e-05
1.01754e-05
1.14632e-05
1.14608e-05
7.68481e-06
9.59447e-06
1.01884e-05
1.14695e-05
1.14701e-05
9.5992e-06
9.97244e-06
1.23302e-05
1.19343e-05
1.19095e-05
1.34247e-05
1.3404e-05
9.9696e-06
1.23184e-05
1.19134e-05
1.19142e-05
1.34087e-05
1.34131e-05
1.19141e-05
1.34121e-05
1.34048e-05
9.97256e-06
1.23301e-05
1.19226e-05
1.34213e-05
1.34115e-05
1.23176e-05
1.28549e-05
1.58962e-05
1.40048e-05
1.39881e-05
1.59559e-05
1.595e-05
1.28439e-05
1.58933e-05
1.39923e-05
1.39979e-05
1.5952e-05
1.59575e-05
1.39882e-05
1.5953e-05
1.59489e-05
1.28583e-05
1.59065e-05
1.39939e-05
1.59617e-05
1.59517e-05
1.58917e-05
1.65415e-05
1.95827e-05
1.66149e-05
1.66112e-05
1.8493e-05
1.84924e-05
1.65392e-05
1.95823e-05
1.66127e-05
1.66173e-05
1.84928e-05
1.84949e-05
1.66102e-05
1.84929e-05
1.84918e-05
1.65507e-05
1.9586e-05
1.66122e-05
1.84958e-05
1.84924e-05
1.95816e-05
2.01632e-05
2.2807e-05
1.91173e-05
1.91171e-05
2.09654e-05
2.09655e-05
2.01629e-05
2.28067e-05
1.91171e-05
1.91188e-05
2.0965e-05
2.09661e-05
1.91166e-05
2.09649e-05
2.09653e-05
2.01656e-05
2.2808e-05
1.91169e-05
2.09661e-05
2.0965e-05
2.28074e-05
2.32693e-05
2.47177e-05
2.15038e-05
2.1504e-05
2.26655e-05
2.26656e-05
2.32689e-05
2.47169e-05
2.15034e-05
2.15044e-05
2.26649e-05
2.26657e-05
2.15039e-05
2.26646e-05
2.26657e-05
2.32699e-05
2.47177e-05
2.15036e-05
2.26654e-05
2.26653e-05
2.47179e-05
2.49034e-05
2.52602e-05
2.29002e-05
2.29004e-05
2.32662e-05
2.32662e-05
2.49026e-05
2.52594e-05
2.28997e-05
2.29004e-05
2.32656e-05
2.32662e-05
2.29005e-05
2.3265e-05
2.32666e-05
2.49033e-05
2.526e-05
2.29e-05
2.32659e-05
2.32662e-05
2.52609e-05
2.53014e-05
2.53409e-05
2.33176e-05
2.33176e-05
2.33845e-05
2.33844e-05
2.53004e-05
2.53398e-05
2.33171e-05
2.33176e-05
2.33839e-05
2.33843e-05
2.3318e-05
2.33831e-05
2.33847e-05
2.5301e-05
2.53404e-05
2.33176e-05
2.33839e-05
2.33843e-05
2.53412e-05
2.53598e-05
2.53553e-05
2.33925e-05
2.33925e-05
2.34027e-05
2.34026e-05
2.53587e-05
2.53543e-05
2.3392e-05
2.33924e-05
2.34021e-05
2.34025e-05
2.33927e-05
2.34013e-05
2.34026e-05
2.53592e-05
2.53548e-05
2.33923e-05
2.3402e-05
2.34023e-05
2.53554e-05
2.53711e-05
2.53567e-05
2.3404e-05
2.34039e-05
2.34055e-05
2.34055e-05
2.537e-05
2.53557e-05
2.34034e-05
2.34037e-05
2.34049e-05
2.34053e-05
2.34039e-05
2.34041e-05
2.34052e-05
2.53704e-05
2.53561e-05
2.34035e-05
2.34048e-05
2.34048e-05
2.53563e-05
2.53716e-05
2.53569e-05
2.34057e-05
2.34057e-05
2.3406e-05
2.3406e-05
2.53706e-05
2.53559e-05
2.34051e-05
2.34055e-05
2.34054e-05
2.34058e-05
2.34053e-05
2.34046e-05
2.34056e-05
2.5371e-05
2.53564e-05
2.3405e-05
2.34053e-05
2.34052e-05
2.53564e-05
2.5372e-05
2.53572e-05
2.34061e-05
2.34061e-05
2.34063e-05
2.34063e-05
2.5371e-05
2.53562e-05
2.34056e-05
2.34059e-05
2.34058e-05
2.34061e-05
2.34057e-05
2.34049e-05
2.34059e-05
2.53714e-05
2.53567e-05
2.34053e-05
2.34056e-05
2.34056e-05
2.53567e-05
2.53722e-05
2.53575e-05
2.34065e-05
2.34064e-05
2.34067e-05
2.34066e-05
2.53712e-05
2.53565e-05
2.34059e-05
2.34062e-05
2.34061e-05
2.34064e-05
2.3406e-05
2.34052e-05
2.34063e-05
2.53716e-05
2.53569e-05
2.34057e-05
2.34059e-05
2.34059e-05
2.5357e-05
2.53725e-05
2.53577e-05
2.34068e-05
2.34068e-05
2.3407e-05
2.3407e-05
2.53715e-05
2.53567e-05
2.34063e-05
2.34066e-05
2.34065e-05
2.34068e-05
2.34064e-05
2.34055e-05
2.34066e-05
2.53719e-05
2.53572e-05
2.3406e-05
2.34062e-05
2.34062e-05
2.53571e-05
2.53727e-05
2.53577e-05
2.34072e-05
2.34072e-05
2.34071e-05
2.34073e-05
2.53718e-05
2.53568e-05
2.34066e-05
2.3407e-05
2.34067e-05
2.3407e-05
2.34067e-05
2.34057e-05
2.34066e-05
2.53721e-05
2.53572e-05
2.34063e-05
2.34065e-05
2.34062e-05
2.53569e-05
2.53727e-05
2.53575e-05
2.34072e-05
2.34073e-05
2.34071e-05
2.34073e-05
2.53719e-05
2.53565e-05
2.34068e-05
2.34071e-05
2.34067e-05
2.3407e-05
2.34066e-05
2.34058e-05
2.34066e-05
2.53722e-05
2.5357e-05
2.34063e-05
2.34066e-05
2.34062e-05
2.5357e-05
2.53725e-05
2.53575e-05
2.34071e-05
2.34073e-05
2.3407e-05
2.34073e-05
2.53715e-05
2.53568e-05
2.34068e-05
2.34071e-05
2.34068e-05
2.3407e-05
2.34067e-05
2.34058e-05
2.34066e-05
2.53719e-05
2.53572e-05
2.34063e-05
2.34065e-05
2.34063e-05
2.53567e-05
2.53724e-05
2.53578e-05
2.34071e-05
2.34073e-05
2.3407e-05
2.34073e-05
2.53716e-05
2.5357e-05
2.34068e-05
2.34071e-05
2.34068e-05
2.3407e-05
2.34067e-05
2.34058e-05
2.34066e-05
2.5372e-05
2.53574e-05
2.34064e-05
2.34066e-05
2.34063e-05
2.53566e-05
2.53726e-05
2.53579e-05
2.34071e-05
2.34073e-05
2.3407e-05
2.34073e-05
2.53719e-05
2.5357e-05
2.34068e-05
2.34071e-05
2.34068e-05
2.3407e-05
2.34067e-05
2.34059e-05
2.34066e-05
2.53722e-05
2.53574e-05
2.34064e-05
2.34066e-05
2.34063e-05
2.53566e-05
2.53728e-05
2.53578e-05
2.34071e-05
2.34074e-05
2.3407e-05
2.34073e-05
2.5372e-05
2.53569e-05
2.34069e-05
2.34071e-05
2.34069e-05
2.3407e-05
2.34067e-05
2.34059e-05
2.34066e-05
2.53723e-05
2.53573e-05
2.34064e-05
2.34065e-05
2.34063e-05
2.53567e-05
2.53728e-05
2.53577e-05
2.3407e-05
2.34074e-05
2.3407e-05
2.34073e-05
2.53719e-05
2.53569e-05
2.34069e-05
2.34071e-05
2.34069e-05
2.3407e-05
2.34067e-05
2.34058e-05
2.34067e-05
2.53722e-05
2.53573e-05
2.34063e-05
2.34065e-05
2.34063e-05
2.53567e-05
2.53727e-05
2.53577e-05
2.34071e-05
2.34074e-05
2.3407e-05
2.34073e-05
2.53719e-05
2.53568e-05
2.34069e-05
2.34071e-05
2.34069e-05
2.3407e-05
2.34067e-05
2.34058e-05
2.34067e-05
2.53722e-05
2.53573e-05
2.34063e-05
2.34065e-05
2.34063e-05
2.53567e-05
2.53727e-05
2.53578e-05
2.3407e-05
2.34073e-05
2.3407e-05
2.34073e-05
2.53718e-05
2.53568e-05
2.34069e-05
2.34071e-05
2.34069e-05
2.3407e-05
2.34067e-05
2.34058e-05
2.34067e-05
2.53722e-05
2.53573e-05
2.34063e-05
2.34065e-05
2.34063e-05
2.53568e-05
2.53728e-05
2.53578e-05
2.3407e-05
2.34074e-05
2.34069e-05
2.34073e-05
2.53718e-05
2.53569e-05
2.3407e-05
2.34071e-05
2.34069e-05
2.3407e-05
2.34067e-05
2.34058e-05
2.34067e-05
2.53722e-05
2.53573e-05
2.34063e-05
2.34066e-05
2.34063e-05
2.53566e-05
2.53728e-05
2.53578e-05
2.3407e-05
2.34074e-05
2.34069e-05
2.34073e-05
2.53718e-05
2.53569e-05
2.34069e-05
2.34071e-05
2.34068e-05
2.3407e-05
2.34067e-05
2.34058e-05
2.34067e-05
2.53722e-05
2.53573e-05
2.34064e-05
2.34065e-05
2.34063e-05
2.53566e-05
2.53727e-05
2.53577e-05
2.3407e-05
2.34074e-05
2.3407e-05
2.34073e-05
2.53719e-05
2.53569e-05
2.34069e-05
2.34071e-05
2.34068e-05
2.3407e-05
2.34067e-05
2.34058e-05
2.34067e-05
2.53722e-05
2.53573e-05
2.34063e-05
2.34065e-05
2.34063e-05
2.53566e-05
2.53727e-05
2.53578e-05
2.3407e-05
2.34074e-05
2.3407e-05
2.34073e-05
2.53719e-05
2.53569e-05
2.34069e-05
2.34071e-05
2.34069e-05
2.3407e-05
2.34067e-05
2.34058e-05
2.34066e-05
2.53722e-05
2.53573e-05
2.34063e-05
2.34065e-05
2.34063e-05
2.53566e-05
2.53727e-05
2.53579e-05
2.34071e-05
2.34074e-05
2.3407e-05
2.34073e-05
2.53719e-05
2.53569e-05
2.3407e-05
2.34071e-05
2.34069e-05
2.3407e-05
2.34067e-05
2.34059e-05
2.34066e-05
2.53722e-05
2.53573e-05
2.34063e-05
2.34065e-05
2.34063e-05
2.53565e-05
2.53728e-05
2.53578e-05
2.3407e-05
2.34074e-05
2.34069e-05
2.34073e-05
2.53719e-05
2.5357e-05
2.3407e-05
2.34071e-05
2.34069e-05
2.3407e-05
2.34067e-05
2.34058e-05
2.34066e-05
2.53722e-05
2.53573e-05
2.34063e-05
2.34065e-05
2.34063e-05
2.53565e-05
2.53727e-05
2.53578e-05
2.3407e-05
2.34074e-05
2.34069e-05
2.34073e-05
2.53719e-05
2.53569e-05
2.3407e-05
2.34071e-05
2.34069e-05
2.3407e-05
2.34067e-05
2.34058e-05
2.34067e-05
2.53722e-05
2.53573e-05
2.34064e-05
2.34065e-05
2.34063e-05
2.53565e-05
2.53727e-05
2.53579e-05
2.3407e-05
2.34074e-05
2.34069e-05
2.34073e-05
2.53719e-05
2.53569e-05
2.3407e-05
2.34071e-05
2.34069e-05
2.34071e-05
2.34067e-05
2.34058e-05
2.34067e-05
2.53722e-05
2.53573e-05
2.34064e-05
2.34064e-05
2.34063e-05
2.53566e-05
2.53728e-05
2.53579e-05
2.3407e-05
2.34074e-05
2.3407e-05
2.34073e-05
2.53719e-05
2.53569e-05
2.34069e-05
2.34071e-05
2.34068e-05
2.3407e-05
2.34067e-05
2.34057e-05
2.34067e-05
2.53722e-05
2.53573e-05
2.34064e-05
2.34064e-05
2.34063e-05
2.53566e-05
2.53728e-05
2.53579e-05
2.34071e-05
2.34073e-05
2.34071e-05
2.34073e-05
2.53719e-05
2.53569e-05
2.34069e-05
2.34071e-05
2.34068e-05
2.3407e-05
2.34067e-05
2.34058e-05
2.34066e-05
2.53722e-05
2.53573e-05
2.34064e-05
2.34064e-05
2.34063e-05
2.53566e-05
2.53727e-05
2.53579e-05
2.34072e-05
2.34073e-05
2.34071e-05
2.34073e-05
2.53719e-05
2.53569e-05
2.34069e-05
2.34071e-05
2.34068e-05
2.3407e-05
2.34067e-05
2.34058e-05
2.34066e-05
2.53722e-05
2.53573e-05
2.34063e-05
2.34064e-05
2.34063e-05
2.53565e-05
2.53728e-05
2.53579e-05
2.34072e-05
2.34074e-05
2.34071e-05
2.34073e-05
2.53719e-05
2.5357e-05
2.34068e-05
2.34071e-05
2.34068e-05
2.3407e-05
2.34067e-05
2.34058e-05
2.34066e-05
2.53722e-05
2.53573e-05
2.34063e-05
2.34065e-05
2.34063e-05
2.53566e-05
2.53728e-05
2.53579e-05
2.34072e-05
2.34074e-05
2.34072e-05
2.34073e-05
2.53719e-05
2.5357e-05
2.34068e-05
2.34071e-05
2.34068e-05
2.3407e-05
2.34067e-05
2.34059e-05
2.34066e-05
2.53722e-05
2.53573e-05
2.34063e-05
2.34065e-05
2.34062e-05
2.53567e-05
2.53728e-05
2.53579e-05
2.34072e-05
2.34074e-05
2.34072e-05
2.34073e-05
2.5372e-05
2.5357e-05
2.34069e-05
2.34071e-05
2.34068e-05
2.34071e-05
2.34066e-05
2.34059e-05
2.34066e-05
2.53722e-05
2.53573e-05
2.34063e-05
2.34065e-05
2.34062e-05
2.53566e-05
2.53728e-05
2.5358e-05
2.34073e-05
2.34074e-05
2.34072e-05
2.34073e-05
2.53719e-05
2.5357e-05
2.34069e-05
2.34071e-05
2.34068e-05
2.3407e-05
2.34067e-05
2.34059e-05
2.34066e-05
2.53722e-05
2.53573e-05
2.34063e-05
2.34065e-05
2.34062e-05
2.53565e-05
2.53728e-05
2.5358e-05
2.34073e-05
2.34074e-05
2.34073e-05
2.34073e-05
2.5372e-05
2.53571e-05
2.34068e-05
2.34071e-05
2.34068e-05
2.3407e-05
2.34067e-05
2.34059e-05
2.34066e-05
2.53722e-05
2.53573e-05
2.34063e-05
2.34065e-05
2.34062e-05
2.53565e-05
2.53729e-05
2.5358e-05
2.34074e-05
2.34074e-05
2.34073e-05
2.34073e-05
2.5372e-05
2.53571e-05
2.34068e-05
2.34071e-05
2.34068e-05
2.3407e-05
2.34067e-05
2.34059e-05
2.34066e-05
2.53722e-05
2.53573e-05
2.34063e-05
2.34065e-05
2.34062e-05
2.53566e-05
2.53729e-05
2.5358e-05
2.34074e-05
2.34074e-05
2.34073e-05
2.34073e-05
2.5372e-05
2.53571e-05
2.34068e-05
2.34071e-05
2.34067e-05
2.3407e-05
2.34067e-05
2.34059e-05
2.34066e-05
2.53722e-05
2.53573e-05
2.34063e-05
2.34065e-05
2.34062e-05
2.53566e-05
2.53729e-05
2.5358e-05
2.34074e-05
2.34074e-05
2.34073e-05
2.34074e-05
2.5372e-05
2.5357e-05
2.34068e-05
2.3407e-05
2.34067e-05
2.3407e-05
2.34067e-05
2.34059e-05
2.34067e-05
2.53722e-05
2.53573e-05
2.34063e-05
2.34065e-05
2.34062e-05
2.53566e-05
2.53729e-05
2.5358e-05
2.34074e-05
2.34075e-05
2.34073e-05
2.34074e-05
2.5372e-05
2.53571e-05
2.34068e-05
2.3407e-05
2.34067e-05
2.3407e-05
2.34068e-05
2.34059e-05
2.34067e-05
2.53722e-05
2.53573e-05
2.34063e-05
2.34064e-05
2.34062e-05
2.53565e-05
2.53729e-05
2.5358e-05
2.34074e-05
2.34074e-05
2.34073e-05
2.34073e-05
2.5372e-05
2.53571e-05
2.34068e-05
2.34071e-05
2.34067e-05
2.3407e-05
2.34067e-05
2.34059e-05
2.34066e-05
2.53722e-05
2.53573e-05
2.34063e-05
2.34064e-05
2.34062e-05
2.53567e-05
2.53729e-05
2.5358e-05
2.34074e-05
2.34074e-05
2.34073e-05
2.34073e-05
2.53721e-05
2.53571e-05
2.34068e-05
2.34071e-05
2.34067e-05
2.3407e-05
2.34067e-05
2.34059e-05
2.34066e-05
2.53722e-05
2.53573e-05
2.34062e-05
2.34064e-05
2.34061e-05
2.53567e-05
2.53729e-05
2.5358e-05
2.34073e-05
2.34074e-05
2.34073e-05
2.34073e-05
2.53721e-05
2.53571e-05
2.34068e-05
2.34071e-05
2.34067e-05
2.3407e-05
2.34067e-05
2.34059e-05
2.34066e-05
2.53721e-05
2.53573e-05
2.34062e-05
2.34065e-05
2.34061e-05
2.53566e-05
2.53728e-05
2.5358e-05
2.34073e-05
2.34074e-05
2.34073e-05
2.34073e-05
2.5372e-05
2.53571e-05
2.34068e-05
2.34071e-05
2.34066e-05
2.3407e-05
2.34066e-05
2.34059e-05
2.34066e-05
2.53722e-05
2.53573e-05
2.34061e-05
2.34065e-05
2.3406e-05
2.53564e-05
2.53729e-05
2.5358e-05
2.34073e-05
2.34074e-05
2.34072e-05
2.34074e-05
2.5372e-05
2.53571e-05
2.34067e-05
2.34071e-05
2.34066e-05
2.3407e-05
2.34067e-05
2.34059e-05
2.34066e-05
2.53722e-05
2.53573e-05
2.34061e-05
2.34065e-05
2.3406e-05
2.53564e-05
2.53729e-05
2.5358e-05
2.34073e-05
2.34074e-05
2.34072e-05
2.34073e-05
2.53721e-05
2.53571e-05
2.34067e-05
2.3407e-05
2.34066e-05
2.3407e-05
2.34066e-05
2.34059e-05
2.34066e-05
2.53722e-05
2.53573e-05
2.34061e-05
2.34065e-05
2.34061e-05
2.53564e-05
2.53728e-05
2.53579e-05
2.34073e-05
2.34074e-05
2.34072e-05
2.34073e-05
2.5372e-05
2.53571e-05
2.34067e-05
2.3407e-05
2.34066e-05
2.3407e-05
2.34067e-05
2.34058e-05
2.34066e-05
2.53722e-05
2.53573e-05
2.34062e-05
2.34065e-05
2.34061e-05
2.53564e-05
2.53728e-05
2.53579e-05
2.34073e-05
2.34074e-05
2.34072e-05
2.34073e-05
2.5372e-05
2.53571e-05
2.34067e-05
2.34071e-05
2.34066e-05
2.3407e-05
2.34067e-05
2.34058e-05
2.34066e-05
2.53722e-05
2.53573e-05
2.34062e-05
2.34065e-05
2.34061e-05
2.53565e-05
2.53728e-05
2.53579e-05
2.34073e-05
2.34074e-05
2.34072e-05
2.34073e-05
2.5372e-05
2.5357e-05
2.34067e-05
2.34071e-05
2.34066e-05
2.3407e-05
2.34066e-05
2.34058e-05
2.34066e-05
2.53722e-05
2.53573e-05
2.34061e-05
2.34064e-05
2.34061e-05
2.53565e-05
2.53728e-05
2.53579e-05
2.34073e-05
2.34074e-05
2.34073e-05
2.34073e-05
2.5372e-05
2.5357e-05
2.34067e-05
2.34071e-05
2.34066e-05
2.3407e-05
2.34067e-05
2.34058e-05
2.34066e-05
2.53722e-05
2.53573e-05
2.34061e-05
2.34064e-05
2.34061e-05
2.53566e-05
2.53728e-05
2.53579e-05
2.34074e-05
2.34074e-05
2.34073e-05
2.34073e-05
2.5372e-05
2.5357e-05
2.34067e-05
2.34071e-05
2.34066e-05
2.3407e-05
2.34067e-05
2.34058e-05
2.34066e-05
2.53722e-05
2.53573e-05
2.34062e-05
2.34064e-05
2.34062e-05
2.53567e-05
2.53728e-05
2.5358e-05
2.34074e-05
2.34074e-05
2.34073e-05
2.34073e-05
2.5372e-05
2.5357e-05
2.34067e-05
2.34071e-05
2.34066e-05
2.3407e-05
2.34067e-05
2.34058e-05
2.34066e-05
2.53722e-05
2.53573e-05
2.34062e-05
2.34064e-05
2.34061e-05
2.53566e-05
2.53728e-05
2.53579e-05
2.34073e-05
2.34074e-05
2.34073e-05
2.34073e-05
2.5372e-05
2.5357e-05
2.34067e-05
2.34071e-05
2.34066e-05
2.3407e-05
2.34067e-05
2.34058e-05
2.34066e-05
2.53722e-05
2.53573e-05
2.34062e-05
2.34064e-05
2.34061e-05
2.53565e-05
2.53728e-05
2.5358e-05
2.34074e-05
2.34074e-05
2.34073e-05
2.34073e-05
2.5372e-05
2.5357e-05
2.34067e-05
2.34071e-05
2.34066e-05
2.3407e-05
2.34066e-05
2.34058e-05
2.34066e-05
2.53722e-05
2.53573e-05
2.34061e-05
2.34064e-05
2.34061e-05
2.53566e-05
2.53728e-05
2.5358e-05
2.34074e-05
2.34074e-05
2.34073e-05
2.34073e-05
2.5372e-05
2.53571e-05
2.34067e-05
2.34071e-05
2.34066e-05
2.3407e-05
2.34067e-05
2.34058e-05
2.34066e-05
2.53722e-05
2.53573e-05
2.34062e-05
2.34064e-05
2.34061e-05
2.53564e-05
2.53729e-05
2.53579e-05
2.34073e-05
2.34074e-05
2.34073e-05
2.34073e-05
2.5372e-05
2.53571e-05
2.34067e-05
2.34071e-05
2.34067e-05
2.3407e-05
2.34067e-05
2.34058e-05
2.34066e-05
2.53722e-05
2.53573e-05
2.34062e-05
2.34065e-05
2.34061e-05
2.53565e-05
2.53728e-05
2.5358e-05
2.34074e-05
2.34074e-05
2.34073e-05
2.34073e-05
2.5372e-05
2.53571e-05
2.34068e-05
2.34071e-05
2.34066e-05
2.3407e-05
2.34067e-05
2.34059e-05
2.34066e-05
2.53722e-05
2.53573e-05
2.34061e-05
2.34065e-05
2.34061e-05
2.53566e-05
2.53728e-05
2.5358e-05
2.34074e-05
2.34074e-05
2.34073e-05
2.34073e-05
2.5372e-05
2.53571e-05
2.34067e-05
2.34071e-05
2.34066e-05
2.3407e-05
2.34067e-05
2.34059e-05
2.34066e-05
2.53722e-05
2.53573e-05
2.34061e-05
2.34065e-05
2.34061e-05
2.53566e-05
2.53729e-05
2.5358e-05
2.34074e-05
2.34074e-05
2.34073e-05
2.34073e-05
2.5372e-05
2.53571e-05
2.34067e-05
2.34071e-05
2.34066e-05
2.3407e-05
2.34066e-05
2.34059e-05
2.34066e-05
2.53722e-05
2.53573e-05
2.34061e-05
2.34065e-05
2.34061e-05
2.53564e-05
2.53729e-05
2.5358e-05
2.34074e-05
2.34074e-05
2.34073e-05
2.34073e-05
2.53721e-05
2.53571e-05
2.34067e-05
2.34071e-05
2.34066e-05
2.3407e-05
2.34067e-05
2.34059e-05
2.34066e-05
2.53722e-05
2.53573e-05
2.34062e-05
2.34064e-05
2.34061e-05
2.53565e-05
2.53729e-05
2.5358e-05
2.34073e-05
2.34074e-05
2.34072e-05
2.34073e-05
2.5372e-05
2.53571e-05
2.34067e-05
2.34071e-05
2.34066e-05
2.3407e-05
2.34067e-05
2.34059e-05
2.34066e-05
2.53722e-05
2.53573e-05
2.34062e-05
2.34064e-05
2.34061e-05
2.53566e-05
2.53728e-05
2.5358e-05
2.34073e-05
2.34074e-05
2.34072e-05
2.34073e-05
2.5372e-05
2.53571e-05
2.34067e-05
2.34071e-05
2.34066e-05
2.3407e-05
2.34067e-05
2.3406e-05
2.34066e-05
2.53722e-05
2.53573e-05
2.34061e-05
2.34064e-05
2.3406e-05
2.53566e-05
2.53729e-05
2.53579e-05
2.34073e-05
2.34074e-05
2.34072e-05
2.34073e-05
2.53721e-05
2.53571e-05
2.34067e-05
2.3407e-05
2.34066e-05
2.3407e-05
2.34067e-05
2.3406e-05
2.34066e-05
2.53722e-05
2.53573e-05
2.34061e-05
2.34065e-05
2.34061e-05
2.53565e-05
2.53728e-05
2.53579e-05
2.34073e-05
2.34074e-05
2.34073e-05
2.34074e-05
2.5372e-05
2.53571e-05
2.34067e-05
2.34071e-05
2.34066e-05
2.3407e-05
2.34067e-05
2.3406e-05
2.34067e-05
2.53722e-05
2.53573e-05
2.34062e-05
2.34065e-05
2.34062e-05
2.53565e-05
2.53728e-05
2.5358e-05
2.34074e-05
2.34075e-05
2.34073e-05
2.34074e-05
2.5372e-05
2.53571e-05
2.34068e-05
2.34072e-05
2.34067e-05
2.34071e-05
2.34068e-05
2.3406e-05
2.34067e-05
2.53722e-05
2.53573e-05
2.34063e-05
2.34066e-05
2.34062e-05
2.53565e-05
2.53728e-05
2.5358e-05
2.34075e-05
2.34075e-05
2.34074e-05
2.34075e-05
2.53721e-05
2.53571e-05
2.34068e-05
2.34072e-05
2.34068e-05
2.34071e-05
2.34069e-05
2.3406e-05
2.34068e-05
2.53722e-05
2.53574e-05
2.34064e-05
2.34066e-05
2.34063e-05
2.53567e-05
2.53729e-05
2.5358e-05
2.34076e-05
2.34076e-05
2.34075e-05
2.34075e-05
2.53721e-05
2.53571e-05
2.34069e-05
2.34073e-05
2.34068e-05
2.34072e-05
2.34069e-05
2.3406e-05
2.34068e-05
2.53723e-05
2.53574e-05
2.34064e-05
2.34066e-05
2.34063e-05
2.53567e-05
2.53729e-05
2.5358e-05
2.34076e-05
2.34077e-05
2.34075e-05
2.34076e-05
2.53721e-05
2.53571e-05
2.3407e-05
2.34073e-05
2.34069e-05
2.34072e-05
2.3407e-05
2.3406e-05
2.34068e-05
2.53723e-05
2.53574e-05
2.34065e-05
2.34066e-05
2.34063e-05
2.53566e-05
2.53729e-05
2.53581e-05
2.34077e-05
2.34078e-05
2.34076e-05
2.34076e-05
2.53721e-05
2.53571e-05
2.34071e-05
2.34074e-05
2.34069e-05
2.34073e-05
2.3407e-05
2.3406e-05
2.34068e-05
2.53723e-05
2.53574e-05
2.34065e-05
2.34066e-05
2.34063e-05
2.53565e-05
2.5373e-05
2.53581e-05
2.34078e-05
2.34078e-05
2.34075e-05
2.34075e-05
2.53721e-05
2.53572e-05
2.34072e-05
2.34075e-05
2.34069e-05
2.34073e-05
2.34071e-05
2.3406e-05
2.34069e-05
2.53723e-05
2.53574e-05
2.34066e-05
2.34066e-05
2.34063e-05
2.53566e-05
2.5373e-05
2.53581e-05
2.34078e-05
2.34078e-05
2.34075e-05
2.34075e-05
2.53721e-05
2.53572e-05
2.34072e-05
2.34075e-05
2.3407e-05
2.34073e-05
2.34072e-05
2.3406e-05
2.34069e-05
2.53723e-05
2.53574e-05
2.34066e-05
2.34066e-05
2.34063e-05
2.53568e-05
2.5373e-05
2.53581e-05
2.34079e-05
2.34079e-05
2.34075e-05
2.34075e-05
2.53721e-05
2.53572e-05
2.34073e-05
2.34076e-05
2.34069e-05
2.34072e-05
2.34072e-05
2.3406e-05
2.34068e-05
2.53723e-05
2.53575e-05
2.34067e-05
2.34066e-05
2.34063e-05
2.53567e-05
2.5373e-05
2.53581e-05
2.3408e-05
2.3408e-05
2.34075e-05
2.34075e-05
2.53722e-05
2.53572e-05
2.34074e-05
2.34077e-05
2.34069e-05
2.34072e-05
2.34073e-05
2.3406e-05
2.34068e-05
2.53724e-05
2.53575e-05
2.34067e-05
2.34066e-05
2.34062e-05
2.53566e-05
2.5373e-05
2.53582e-05
2.34081e-05
2.34081e-05
2.34075e-05
2.34075e-05
2.53722e-05
2.53573e-05
2.34074e-05
2.34077e-05
2.34069e-05
2.34072e-05
2.34074e-05
2.3406e-05
2.34068e-05
2.53724e-05
2.53575e-05
2.34068e-05
2.34066e-05
2.34062e-05
2.53567e-05
2.53731e-05
2.53583e-05
2.34082e-05
2.34082e-05
2.34075e-05
2.34075e-05
2.53723e-05
2.53574e-05
2.34076e-05
2.34079e-05
2.34069e-05
2.34072e-05
2.34075e-05
2.3406e-05
2.34068e-05
2.53725e-05
2.53576e-05
2.34069e-05
2.34065e-05
2.34062e-05
2.53569e-05
2.53732e-05
2.53585e-05
2.34084e-05
2.34084e-05
2.34075e-05
2.34075e-05
2.53723e-05
2.53576e-05
2.34078e-05
2.34081e-05
2.34069e-05
2.34072e-05
2.34077e-05
2.3406e-05
2.34068e-05
2.53725e-05
2.53578e-05
2.34071e-05
2.34065e-05
2.34062e-05
2.53571e-05
2.53733e-05
2.53588e-05
2.34087e-05
2.34087e-05
2.34076e-05
2.34076e-05
2.53725e-05
2.53579e-05
2.34081e-05
2.34084e-05
2.3407e-05
2.34072e-05
2.3408e-05
2.3406e-05
2.34068e-05
2.53727e-05
2.53582e-05
2.34074e-05
2.34066e-05
2.34062e-05
2.53574e-05
2.53735e-05
2.53577e-05
2.34091e-05
2.34091e-05
2.34049e-05
2.34049e-05
2.53726e-05
2.53569e-05
2.34085e-05
2.34088e-05
2.34042e-05
2.34045e-05
2.34083e-05
2.34034e-05
2.34041e-05
2.53728e-05
2.53572e-05
2.34077e-05
2.34038e-05
2.34034e-05
2.53561e-05
2.53711e-05
2.52188e-05
2.34073e-05
2.34073e-05
2.32627e-05
2.32627e-05
2.53703e-05
2.52182e-05
2.34067e-05
2.3407e-05
2.32624e-05
2.3262e-05
2.34066e-05
2.32618e-05
2.32618e-05
2.53704e-05
2.52181e-05
2.34059e-05
2.32618e-05
2.32615e-05
2.52176e-05
2.50469e-05
2.30806e-05
2.30806e-05
2.50465e-05
2.30805e-05
2.30799e-05
2.09341e-05
2.09338e-05
2.09337e-05
2.30797e-05
2.50462e-05
2.30796e-05
1.85896e-05
6.01611e-06
1.41654e-05
1.41484e-05
7.15002e-08
1.23074e-06
2.85611e-06
9.80866e-06
7.36202e-08
1.1043e-06
9.82565e-06
7.25779e-07
4.52073e-07
3.61671e-07
2.91398e-07
2.64942e-07
5.18005e-06
2.0366e-07
6.78374e-06
1.40977e-05
2.15363e-05
2.64148e-07
6.39091e-06
2.02759e-07
8.30105e-06
9.80385e-06
9.81454e-06
9.8405e-06
9.92961e-06
9.89207e-06
9.90944e-06
9.93533e-06
7.26261e-08
2.96312e-06
5.04543e-06
1.80993e-06
7.22148e-08
3.02383e-06
5.07104e-06
1.43606e-05
2.16993e-05
7.41325e-08
5.15157e-06
9.38635e-07
1.46024e-06
7.38293e-08
5.15532e-06
9.1213e-07
1.82602e-06
1.86936e-06
4.35067e-07
1.85666e-06
1.83911e-06
4.65373e-07
1.00986e-05
3.50015e-07
1.29168e-05
3.69282e-05
4.70962e-05
4.68407e-07
1.24802e-05
3.51024e-07
1.58845e-05
9.98893e-06
1.00038e-05
1.00292e-05
1.02958e-05
1.02856e-05
1.02901e-05
1.03159e-05