/*--------------------------------*- C++ -*----------------------------------*\
| =========                 |                                                 |
| \\      /  F ield         | OpenFOAM: The Open Source CFD Toolbox           |
|  \\    /   O peration     | Version:  v1906                                 |
|   \\  /    A nd           | Web:      www.OpenFOAM.com                      |
|    \\/     M anipulation  |                                                 |
\*---------------------------------------------------------------------------*/
FoamFile
{
    version     2.0;
    format      ascii;
    class       volScalarField;
    location    "75";
    object      nut;
}
// * * * * * * * * * * * * * * * * * * * * * * * * * * * * * * * * * * * * * //

dimensions      [0 2 -1 0 0 0 0];


internalField   nonuniform List<scalar> 
171728
(
6.03879e-05
1.02922e-05
8.98486e-06
2.14102e-06
6.14982e-05
1.16909e-05
1.03081e-05
2.2517e-06
6.36469e-05
1.28024e-05
1.22262e-05
2.61382e-06
6.59561e-05
1.49551e-05
1.46482e-05
3.21724e-06
6.81691e-05
1.77012e-05
1.75628e-05
4.23776e-06
7.03426e-05
2.10323e-05
2.10432e-05
6.29483e-06
7.24829e-05
2.50047e-05
2.49156e-05
9.34325e-06
7.45619e-05
2.95662e-05
2.93912e-05
1.2487e-05
7.66876e-05
3.43708e-05
3.46448e-05
1.60953e-05
7.91418e-05
4.02325e-05
4.05407e-05
2.11669e-05
8.19148e-05
4.66946e-05
4.69274e-05
2.76128e-05
8.5597e-05
5.44234e-05
5.44872e-05
3.56204e-05
8.99679e-05
6.23e-05
6.24082e-05
4.53382e-05
9.55852e-05
7.12175e-05
7.12161e-05
5.64722e-05
0.000101724
8.0301e-05
8.03331e-05
6.7233e-05
0.000108339
9.02318e-05
9.02614e-05
7.82665e-05
0.000113772
9.83028e-05
9.83108e-05
8.81787e-05
0.000119216
0.000107323
0.000107323
9.86574e-05
0.000123125
0.000113303
0.0001133
0.000104968
0.000124614
0.000115275
0.000115272
0.000106769
0.000124944
0.000115647
0.000115645
0.000107029
0.000124997
0.000115706
0.000115703
0.000107084
0.000125005
0.000115714
0.000115711
0.000107085
0.000125006
0.000115714
0.000115711
0.000107085
0.000125007
0.000115714
0.000115711
0.000107086
0.000125008
0.000115715
0.000115713
0.000107088
0.000125009
0.000115718
0.000115715
0.000107089
0.00012501
0.00011572
0.000115718
0.000107088
0.000125012
0.00011572
0.000115718
0.000107088
0.000125013
0.00011572
0.000115718
0.000107088
0.000125013
0.00011572
0.000115718
0.000107086
0.000125013
0.00011572
0.000115718
0.000107086
0.000125013
0.00011572
0.000115718
0.000107086
0.000125013
0.00011572
0.000115718
0.000107086
0.000125013
0.00011572
0.000115717
0.000107085
0.000125014
0.00011572
0.000115718
0.000107085
0.000125014
0.00011572
0.000115718
0.000107085
0.000125013
0.00011572
0.000115718
0.000107085
0.000125013
0.00011572
0.000115718
0.000107085
0.000125014
0.00011572
0.000115717
0.000107085
0.000125013
0.00011572
0.000115717
0.000107084
0.000125013
0.000115721
0.000115717
0.000107084
0.000125013
0.000115721
0.000115717
0.000107085
0.000125013
0.000115721
0.000115717
0.000107085
0.000125012
0.000115721
0.000115717
0.000107085
0.000125013
0.000115721
0.000115717
0.000107085
0.000125013
0.000115721
0.000115717
0.000107084
0.000125012
0.000115721
0.000115717
0.000107085
0.000125012
0.000115721
0.000115717
0.000107085
0.000125013
0.000115722
0.000115717
0.000107085
0.000125013
0.000115721
0.000115717
0.000107084
0.000125014
0.000115721
0.000115717
0.000107084
0.000125014
0.000115721
0.000115717
0.000107084
0.000125013
0.000115721
0.000115717
0.000107085
0.000125013
0.000115721
0.000115717
0.000107085
0.000125013
0.000115722
0.000115717
0.000107085
0.000125014
0.000115721
0.000115717
0.000107085
0.000125013
0.000115721
0.000115717
0.000107085
0.000125012
0.000115721
0.000115717
0.000107085
0.000125012
0.000115721
0.000115717
0.000107084
0.000125012
0.000115721
0.000115717
0.000107084
0.000125011
0.000115721
0.000115717
0.000107084
0.000125011
0.000115721
0.000115717
0.000107084
0.000125011
0.000115721
0.000115717
0.000107084
0.000125012
0.000115721
0.000115717
0.000107084
0.000125013
0.000115721
0.000115717
0.000107084
0.000125013
0.000115721
0.000115717
0.000107085
0.000125013
0.000115721
0.000115717
0.000107085
0.000125013
0.000115721
0.000115717
0.000107084
0.000125013
0.000115721
0.000115717
0.000107085
0.000125012
0.000115721
0.000115717
0.000107084
0.000125013
0.000115721
0.000115717
0.000107084
0.000125012
0.000115721
0.000115717
0.000107085
0.000125012
0.000115721
0.000115717
0.000107085
0.000125012
0.000115722
0.000115717
0.000107084
0.000125012
0.000115721
0.000115717
0.000107084
0.000125012
0.000115721
0.000115717
0.000107085
0.000125012
0.000115722
0.000115717
0.000107085
0.000125012
0.000115722
0.000115717
0.000107084
0.000125013
0.000115722
0.000115717
0.000107084
0.000125013
0.000115721
0.000115717
0.000107085
0.000125013
0.000115722
0.000115717
0.000107085
0.000125013
0.000115722
0.000115717
0.000107085
0.000125013
0.000115721
0.000115717
0.000107085
0.000125013
0.000115721
0.000115717
0.000107085
0.000125012
0.000115722
0.000115718
0.000107085
0.000125013
0.000115722
0.000115718
0.000107086
0.000125013
0.000115723
0.000115719
0.000107086
0.000125013
0.000115724
0.00011572
0.000107086
0.000125013
0.000115726
0.000115721
0.000107087
0.000125013
0.000115729
0.000115725
0.000107089
0.000125014
0.000115735
0.000115731
0.000107093
0.000125015
0.000115746
0.000115742
0.000107098
0.000125015
0.00011574
0.000115736
0.000107108
0.000125311
0.00011649
0.000116488
0.000108232
2.02479e-06
6.94192e-06
6.32209e-06
2.11487e-06
6.05162e-06
6.84777e-06
6.09947e-05
6.08591e-05
6.07987e-05
6.07502e-05
7.0231e-06
6.6346e-06
1.828e-06
6.50691e-06
6.32083e-06
2.15912e-06
2.03796e-06
2.45889e-06
9.25149e-06
8.81193e-06
1.02711e-05
9.64118e-06
2.10023e-06
2.2676e-06
8.6825e-06
9.65275e-06
9.77134e-06
1.05061e-05
8.96896e-06
1.15021e-05
9.77614e-06
1.8305e-06
2.09213e-06
8.76376e-06
9.8547e-06
9.62511e-06
2.27057e-06
2.45911e-06
3.17861e-06
1.07724e-05
1.00673e-05
1.24163e-05
1.15112e-05
2.24764e-06
2.66779e-06
1.02912e-05
1.09224e-05
1.22063e-05
1.23371e-05
1.01928e-05
1.24281e-05
1.15473e-05
2.08059e-06
2.63176e-06
1.00673e-05
1.17215e-05
1.15024e-05
2.62837e-06
3.17684e-06
3.95571e-06
1.2978e-05
1.20533e-05
1.48298e-05
1.40333e-05
2.6527e-06
3.35445e-06
1.28861e-05
1.28599e-05
1.40396e-05
1.45407e-05
1.20146e-05
1.43844e-05
1.36671e-05
2.62417e-06
3.39145e-06
1.20127e-05
1.40187e-05
1.37795e-05
3.22581e-06
3.96342e-06
5.26089e-06
1.54881e-05
1.4758e-05
1.76821e-05
1.72859e-05
3.35386e-06
4.56273e-06
1.431e-05
1.50869e-05
1.63574e-05
1.68506e-05
1.42745e-05
1.69407e-05
1.63473e-05
3.39061e-06
4.50101e-06
1.44175e-05
1.67759e-05
1.65156e-05
4.20194e-06
5.30476e-06
7.15997e-06
1.84652e-05
1.81922e-05
2.1006e-05
2.07396e-05
4.61174e-06
6.62193e-06
1.70055e-05
1.74896e-05
1.93453e-05
1.97391e-05
1.70896e-05
2.01216e-05
1.95529e-05
4.54065e-06
6.46249e-06
1.72677e-05
2.01042e-05
1.97578e-05
6.17285e-06
7.25093e-06
9.78062e-06
2.19311e-05
2.15213e-05
2.47481e-05
2.37956e-05
6.73549e-06
9.47526e-06
2.02443e-05
2.06462e-05
2.32331e-05
2.3557e-05
2.05178e-05
2.39654e-05
2.35437e-05
6.57437e-06
9.39527e-06
2.06904e-05
2.38993e-05
2.3755e-05
9.1875e-06
9.90972e-06
1.28723e-05
2.57544e-05
2.46579e-05
2.88185e-05
2.77049e-05
9.61296e-06
1.2555e-05
2.43179e-05
2.46301e-05
2.76855e-05
2.80367e-05
2.46276e-05
2.83781e-05
2.79816e-05
9.55268e-06
1.26015e-05
2.48523e-05
2.81833e-05
2.81818e-05
1.23554e-05
1.30104e-05
1.63348e-05
2.98837e-05
2.8879e-05
3.3343e-05
3.26623e-05
1.26919e-05
1.61427e-05
2.88661e-05
2.92326e-05
3.26059e-05
3.29502e-05
2.91602e-05
3.31113e-05
3.28813e-05
1.27392e-05
1.62177e-05
2.93432e-05
3.3296e-05
3.30208e-05
1.58813e-05
1.65365e-05
2.11883e-05
3.46043e-05
3.40058e-05
3.88015e-05
3.83712e-05
1.63664e-05
2.11044e-05
3.39206e-05
3.42401e-05
3.82471e-05
3.84936e-05
3.41858e-05
3.86283e-05
3.83373e-05
1.64358e-05
2.11994e-05
3.43377e-05
3.89688e-05
3.85846e-05
2.08389e-05
2.15262e-05
2.75344e-05
4.03881e-05
3.99582e-05
4.5248e-05
4.4865e-05
2.14213e-05
2.73853e-05
3.98584e-05
4.00838e-05
4.47621e-05
4.49452e-05
3.98438e-05
4.50205e-05
4.45922e-05
2.15288e-05
2.75036e-05
4.00902e-05
4.5256e-05
4.47555e-05
2.71695e-05
2.79668e-05
3.56087e-05
4.69182e-05
4.65835e-05
5.24715e-05
5.22383e-05
2.78218e-05
3.55154e-05
4.64867e-05
4.6664e-05
5.2247e-05
5.23995e-05
4.63813e-05
5.24596e-05
5.24205e-05
2.79364e-05
3.56144e-05
4.64973e-05
5.25692e-05
5.24399e-05
3.54395e-05
3.57483e-05
4.46149e-05
5.44038e-05
5.41832e-05
6.02561e-05
6.00909e-05
3.5674e-05
4.45984e-05
5.42071e-05
5.43337e-05
6.00965e-05
6.01251e-05
5.44207e-05
6.02162e-05
6.0265e-05
3.57644e-05
4.46333e-05
5.44451e-05
6.03112e-05
6.03182e-05
4.47669e-05
4.51833e-05
5.49592e-05
6.23621e-05
6.22311e-05
6.90834e-05
6.90095e-05
4.51634e-05
5.49522e-05
6.22357e-05
6.22368e-05
6.90419e-05
6.90009e-05
6.23595e-05
6.90333e-05
6.90447e-05
4.52132e-05
5.49487e-05
6.24076e-05
6.9058e-05
6.90761e-05
5.50124e-05
5.64634e-05
6.56285e-05
7.12691e-05
7.11901e-05
7.78626e-05
7.77694e-05
5.64405e-05
6.55637e-05
7.12336e-05
7.11897e-05
7.78142e-05
7.78085e-05
7.12112e-05
7.7812e-05
7.77734e-05
5.64328e-05
6.56327e-05
7.12417e-05
7.78317e-05
7.78076e-05
6.55621e-05
6.72977e-05
7.66696e-05
8.03432e-05
8.02642e-05
8.79915e-05
8.79588e-05
6.72414e-05
7.66585e-05
8.03041e-05
8.0309e-05
8.79815e-05
8.79964e-05
8.02653e-05
8.79833e-05
8.7955e-05
6.73228e-05
7.67155e-05
8.02964e-05
8.80189e-05
8.7974e-05
7.66499e-05
7.82937e-05
8.66197e-05
9.02351e-05
9.02125e-05
9.61945e-05
9.61874e-05
7.82829e-05
8.66203e-05
9.02313e-05
9.02429e-05
9.61998e-05
9.61982e-05
9.02093e-05
9.6203e-05
9.61866e-05
7.83337e-05
8.66321e-05
9.02248e-05
9.62148e-05
9.61963e-05
8.66114e-05
8.81861e-05
9.71676e-05
9.82943e-05
9.8289e-05
0.000105165
0.000105163
8.81872e-05
9.71712e-05
9.83007e-05
9.82958e-05
0.000105172
0.000105162
9.82891e-05
0.000105179
0.000105166
8.81949e-05
9.71692e-05
9.82983e-05
0.000105179
0.000105174
9.71665e-05
9.86634e-05
0.00010432
0.000107311
0.000107309
0.000112224
0.000112222
9.86661e-05
0.000104322
0.000107318
0.000107307
0.000112231
0.000112218
0.000107313
0.000112238
0.000112226
9.8663e-05
0.000104316
0.000107321
0.000112235
0.000112234
0.000104317
0.000104972
0.000106725
0.00011329
0.000113288
0.000115012
0.00011501
0.000104974
0.000106727
0.000113297
0.000113283
0.000115019
0.000115005
0.000113292
0.000115025
0.000115016
0.000104968
0.000106721
0.000113301
0.000115022
0.000115024
0.000106724
0.00010677
0.000107073
0.000115262
0.00011526
0.000115595
0.000115592
0.000106772
0.000107075
0.000115269
0.000115255
0.000115602
0.000115587
0.000115266
0.000115607
0.000115598
0.000106766
0.000107069
0.000115274
0.000115605
0.000115606
0.000107071
0.000107032
0.000107142
0.000115636
0.000115632
0.000115689
0.000115684
0.000107033
0.000107144
0.000115643
0.000115628
0.000115696
0.00011568
0.000115638
0.0001157
0.00011569
0.000107027
0.000107137
0.000115647
0.000115697
0.000115698
0.00010714
0.000107087
0.000107153
0.000115696
0.000115691
0.000115704
0.000115698
0.000107088
0.000107154
0.000115702
0.000115686
0.00011571
0.000115694
0.000115696
0.000115714
0.000115702
0.000107082
0.000107148
0.000115705
0.000115711
0.000115711
0.000107148
0.00010709
0.000107151
0.000115704
0.000115698
0.000115704
0.000115698
0.000107091
0.000107153
0.00011571
0.000115694
0.00011571
0.000115694
0.000115702
0.000115714
0.000115702
0.000107085
0.000107146
0.000115711
0.000115711
0.000115711
0.000107146
0.000107091
0.000107153
0.000115705
0.000115699
0.000115705
0.000115698
0.000107092
0.000107154
0.00011571
0.000115694
0.00011571
0.000115694
0.000115702
0.000115714
0.000115702
0.000107086
0.000107147
0.000115711
0.000115711
0.00011571
0.000107148
0.000107091
0.000107155
0.000115705
0.000115698
0.000115707
0.000115699
0.000107092
0.000107155
0.000115711
0.000115694
0.000115713
0.000115695
0.000115702
0.000115714
0.000115704
0.000107086
0.000107148
0.00011571
0.000115712
0.000115711
0.000107149
0.000107093
0.000107156
0.000115708
0.000115699
0.000115711
0.000115702
0.000107093
0.000107156
0.000115713
0.000115696
0.000115716
0.000115699
0.000115705
0.000115717
0.000115707
0.000107088
0.00010715
0.000115711
0.000115715
0.000115713
0.00010715
0.000107094
0.000107156
0.000115711
0.000115703
0.000115711
0.000115704
0.000107095
0.000107157
0.000115716
0.000115699
0.000115717
0.0001157
0.000115708
0.00011572
0.000115707
0.000107089
0.00010715
0.000115714
0.000115717
0.000115714
0.000107149
0.000107095
0.000107155
0.000115712
0.000115705
0.000115711
0.000115704
0.000107096
0.000107156
0.000115718
0.000115701
0.000115718
0.0001157
0.000115708
0.00011572
0.000115707
0.00010709
0.00010715
0.000115714
0.000115718
0.000115714
0.00010715
0.000107094
0.000107156
0.000115711
0.000115705
0.000115711
0.000115704
0.000107094
0.000107157
0.000115718
0.000115701
0.000115718
0.000115701
0.000115708
0.00011572
0.000115708
0.000107089
0.000107151
0.000115714
0.000115718
0.000115714
0.000107149
0.000107094
0.000107157
0.000115711
0.000115704
0.000115711
0.000115704
0.000107095
0.000107157
0.000115718
0.000115701
0.000115718
0.0001157
0.000115708
0.00011572
0.000115708
0.000107089
0.000107151
0.000115714
0.000115718
0.000115714
0.000107148
0.000107095
0.000107157
0.000115711
0.000115705
0.000115711
0.000115704
0.000107096
0.000107157
0.000115718
0.000115701
0.000115718
0.000115701
0.000115708
0.000115721
0.000115708
0.00010709
0.000107151
0.000115715
0.000115718
0.000115714
0.000107148
0.000107095
0.000107156
0.000115711
0.000115704
0.000115711
0.000115704
0.000107096
0.000107157
0.000115718
0.000115701
0.000115718
0.000115701
0.000115708
0.000115721
0.000115708
0.00010709
0.000107151
0.000115714
0.000115718
0.000115714
0.000107149
0.000107095
0.000107156
0.000115711
0.000115704
0.000115711
0.000115703
0.000107096
0.000107157
0.000115718
0.000115701
0.000115718
0.000115701
0.000115708
0.00011572
0.000115708
0.000107089
0.000107151
0.000115714
0.000115718
0.000115714
0.000107149
0.000107095
0.000107156
0.000115712
0.000115703
0.000115711
0.000115703
0.000107096
0.000107157
0.000115718
0.000115701
0.000115718
0.0001157
0.000115708
0.00011572
0.000115708
0.000107089
0.000107151
0.000115714
0.000115717
0.000115714
0.000107149
0.000107095
0.000107156
0.000115711
0.000115703
0.000115711
0.000115703
0.000107096
0.000107157
0.000115719
0.000115701
0.000115718
0.0001157
0.000115708
0.00011572
0.000115708
0.000107089
0.000107151
0.000115714
0.000115718
0.000115714
0.000107149
0.000107095
0.000107157
0.000115711
0.000115704
0.000115711
0.000115704
0.000107095
0.000107158
0.000115719
0.000115701
0.000115718
0.0001157
0.000115708
0.00011572
0.000115708
0.000107089
0.000107151
0.000115714
0.000115718
0.000115714
0.000107148
0.000107095
0.000107156
0.000115711
0.000115704
0.000115711
0.000115703
0.000107096
0.000107158
0.000115718
0.000115701
0.000115718
0.000115701
0.000115708
0.00011572
0.000115708
0.00010709
0.000107151
0.000115714
0.000115718
0.000115714
0.000107148
0.000107095
0.000107156
0.000115711
0.000115704
0.000115711
0.000115703
0.000107096
0.000107158
0.000115718
0.000115701
0.000115718
0.0001157
0.000115708
0.00011572
0.000115708
0.000107089
0.000107151
0.000115714
0.000115718
0.000115714
0.000107148
0.000107095
0.000107156
0.000115711
0.000115704
0.000115711
0.000115703
0.000107096
0.000107158
0.000115718
0.0001157
0.000115718
0.0001157
0.000115708
0.00011572
0.000115708
0.00010709
0.000107151
0.000115714
0.000115718
0.000115714
0.000107148
0.000107095
0.000107156
0.000115712
0.000115703
0.000115711
0.000115704
0.000107096
0.000107158
0.000115719
0.000115701
0.000115718
0.0001157
0.000115708
0.000115721
0.000115707
0.00010709
0.000107151
0.000115714
0.000115717
0.000115714
0.000107148
0.000107095
0.000107156
0.000115711
0.000115704
0.000115711
0.000115704
0.000107096
0.000107157
0.000115718
0.000115701
0.000115718
0.0001157
0.000115708
0.000115721
0.000115708
0.00010709
0.000107151
0.000115714
0.000115717
0.000115714
0.000107148
0.000107095
0.000107156
0.000115711
0.000115704
0.000115711
0.000115704
0.000107096
0.000107157
0.000115719
0.0001157
0.000115718
0.0001157
0.000115708
0.000115721
0.000115708
0.000107089
0.000107151
0.000115714
0.000115717
0.000115714
0.000107148
0.000107095
0.000107156
0.000115711
0.000115705
0.000115711
0.000115705
0.000107096
0.000107157
0.000115718
0.000115701
0.000115718
0.000115701
0.000115708
0.000115721
0.000115708
0.000107089
0.000107151
0.000115714
0.000115717
0.000115714
0.000107148
0.000107095
0.000107156
0.000115711
0.000115705
0.000115711
0.000115705
0.000107096
0.000107157
0.000115718
0.000115701
0.000115717
0.000115701
0.000115708
0.000115721
0.000115708
0.00010709
0.000107151
0.000115714
0.000115717
0.000115714
0.000107148
0.000107095
0.000107156
0.000115711
0.000115705
0.000115711
0.000115704
0.000107096
0.000107157
0.000115718
0.000115701
0.000115717
0.000115701
0.000115708
0.000115721
0.000115708
0.00010709
0.000107151
0.000115714
0.000115717
0.000115714
0.000107148
0.000107095
0.000107156
0.000115712
0.000115705
0.000115711
0.000115704
0.000107096
0.000107157
0.000115717
0.000115701
0.000115717
0.000115701
0.000115708
0.000115721
0.000115708
0.00010709
0.000107151
0.000115714
0.000115717
0.000115714
0.000107148
0.000107095
0.000107156
0.000115712
0.000115705
0.000115711
0.000115704
0.000107096
0.000107157
0.000115717
0.000115701
0.000115717
0.0001157
0.000115708
0.000115721
0.000115708
0.000107089
0.000107151
0.000115714
0.000115717
0.000115714
0.000107148
0.000107095
0.000107156
0.000115712
0.000115705
0.000115712
0.000115704
0.000107096
0.000107157
0.000115718
0.0001157
0.000115717
0.0001157
0.000115708
0.000115721
0.000115707
0.000107089
0.000107151
0.000115714
0.000115717
0.000115714
0.000107148
0.000107095
0.000107156
0.000115712
0.000115705
0.000115712
0.000115704
0.000107096
0.000107157
0.000115718
0.000115701
0.000115718
0.000115701
0.000115708
0.000115722
0.000115707
0.000107089
0.000107151
0.000115714
0.000115717
0.000115713
0.000107148
0.000107095
0.000107156
0.000115712
0.000115705
0.000115712
0.000115705
0.000107096
0.000107158
0.000115718
0.000115701
0.000115718
0.000115701
0.000115708
0.000115722
0.000115708
0.000107089
0.000107151
0.000115714
0.000115717
0.000115714
0.000107148
0.000107095
0.000107156
0.000115712
0.000115705
0.000115712
0.000115704
0.000107096
0.000107158
0.000115718
0.000115701
0.000115718
0.0001157
0.000115708
0.000115721
0.000115708
0.000107089
0.000107151
0.000115714
0.000115717
0.000115714
0.000107148
0.000107095
0.000107157
0.000115712
0.000115705
0.000115713
0.000115704
0.000107096
0.000107158
0.000115718
0.000115701
0.000115718
0.0001157
0.000115708
0.000115721
0.000115708
0.00010709
0.000107151
0.000115714
0.000115717
0.000115714
0.000107148
0.000107095
0.000107157
0.000115713
0.000115705
0.000115712
0.000115705
0.000107096
0.000107158
0.000115718
0.000115701
0.000115717
0.0001157
0.000115708
0.000115722
0.000115708
0.000107089
0.000107151
0.000115714
0.000115718
0.000115714
0.000107148
0.000107095
0.000107157
0.000115712
0.000115705
0.000115712
0.000115705
0.000107096
0.000107158
0.000115718
0.0001157
0.000115717
0.0001157
0.000115708
0.000115721
0.000115708
0.000107089
0.000107151
0.000115714
0.000115717
0.000115714
0.000107148
0.000107095
0.000107157
0.000115712
0.000115705
0.000115712
0.000115705
0.000107096
0.000107158
0.000115718
0.0001157
0.000115717
0.0001157
0.000115709
0.000115722
0.000115708
0.000107089
0.000107151
0.000115714
0.000115717
0.000115714
0.000107148
0.000107095
0.000107156
0.000115712
0.000115705
0.000115712
0.000115705
0.000107096
0.000107158
0.000115717
0.0001157
0.000115717
0.0001157
0.000115708
0.000115722
0.000115708
0.000107089
0.000107151
0.000115714
0.000115717
0.000115714
0.000107148
0.000107095
0.000107156
0.000115713
0.000115705
0.000115712
0.000115705
0.000107096
0.000107158
0.000115717
0.000115701
0.000115717
0.0001157
0.000115708
0.000115721
0.000115708
0.000107089
0.00010715
0.000115714
0.000115717
0.000115714
0.000107148
0.000107095
0.000107156
0.000115712
0.000115705
0.000115712
0.000115705
0.000107096
0.000107158
0.000115717
0.000115701
0.000115717
0.0001157
0.000115708
0.000115721
0.000115707
0.000107089
0.000107151
0.000115714
0.000115717
0.000115713
0.000107148
0.000107095
0.000107156
0.000115712
0.000115705
0.000115712
0.000115705
0.000107096
0.000107158
0.000115717
0.000115701
0.000115717
0.000115701
0.000115708
0.000115721
0.000115708
0.000107089
0.000107151
0.000115714
0.000115717
0.000115713
0.000107147
0.000107095
0.000107156
0.000115712
0.000115705
0.000115712
0.000115705
0.000107096
0.000107158
0.000115717
0.000115701
0.000115717
0.0001157
0.000115708
0.000115721
0.000115708
0.00010709
0.000107151
0.000115713
0.000115717
0.000115713
0.000107147
0.000107095
0.000107156
0.000115712
0.000115705
0.000115712
0.000115705
0.000107096
0.000107158
0.000115717
0.0001157
0.000115717
0.0001157
0.000115708
0.000115721
0.000115707
0.00010709
0.000107151
0.000115713
0.000115717
0.000115713
0.000107148
0.000107095
0.000107156
0.000115712
0.000115705
0.000115712
0.000115705
0.000107096
0.000107158
0.000115717
0.0001157
0.000115717
0.0001157
0.000115708
0.000115721
0.000115708
0.000107089
0.000107151
0.000115714
0.000115718
0.000115714
0.000107148
0.000107095
0.000107156
0.000115712
0.000115705
0.000115712
0.000115704
0.000107096
0.000107158
0.000115717
0.000115701
0.000115717
0.0001157
0.000115708
0.000115721
0.000115707
0.000107089
0.000107151
0.000115714
0.000115717
0.000115713
0.000107148
0.000107095
0.000107156
0.000115712
0.000115705
0.000115712
0.000115705
0.000107096
0.000107157
0.000115717
0.0001157
0.000115716
0.0001157
0.000115708
0.000115721
0.000115707
0.000107089
0.000107151
0.000115713
0.000115717
0.000115713
0.000107148
0.000107095
0.000107156
0.000115712
0.000115705
0.000115712
0.000115705
0.000107096
0.000107158
0.000115717
0.0001157
0.000115717
0.0001157
0.000115708
0.000115721
0.000115708
0.000107089
0.000107151
0.000115713
0.000115717
0.000115714
0.000107148
0.000107095
0.000107156
0.000115712
0.000115705
0.000115712
0.000115704
0.000107096
0.000107158
0.000115717
0.000115701
0.000115717
0.0001157
0.000115708
0.000115721
0.000115708
0.000107089
0.000107151
0.000115714
0.000115717
0.000115714
0.000107148
0.000107095
0.000107156
0.000115712
0.000115705
0.000115712
0.000115704
0.000107096
0.000107158
0.000115717
0.000115701
0.000115717
0.0001157
0.000115708
0.000115721
0.000115708
0.000107089
0.000107151
0.000115714
0.000115717
0.000115713
0.000107148
0.000107095
0.000107156
0.000115712
0.000115705
0.000115712
0.000115704
0.000107096
0.000107158
0.000115717
0.000115701
0.000115717
0.0001157
0.000115708
0.000115721
0.000115707
0.000107089
0.000107151
0.000115714
0.000115717
0.000115713
0.000107148
0.000107095
0.000107156
0.000115712
0.000115705
0.000115712
0.000115704
0.000107096
0.000107158
0.000115717
0.0001157
0.000115717
0.0001157
0.000115708
0.000115721
0.000115708
0.000107089
0.000107151
0.000115713
0.000115717
0.000115713
0.000107148
0.000107095
0.000107156
0.000115712
0.000115705
0.000115712
0.000115705
0.000107096
0.000107158
0.000115717
0.000115701
0.000115717
0.0001157
0.000115708
0.000115721
0.000115708
0.000107089
0.000107151
0.000115714
0.000115717
0.000115714
0.000107147
0.000107095
0.000107156
0.000115712
0.000115705
0.000115712
0.000115705
0.000107096
0.000107158
0.000115717
0.000115701
0.000115717
0.0001157
0.000115708
0.000115721
0.000115708
0.000107089
0.000107151
0.000115714
0.000115717
0.000115713
0.000107148
0.000107095
0.000107156
0.000115712
0.000115705
0.000115712
0.000115705
0.000107096
0.000107158
0.000115717
0.000115701
0.000115717
0.000115701
0.000115708
0.000115721
0.000115707
0.000107089
0.000107151
0.000115713
0.000115717
0.000115713
0.000107148
0.000107095
0.000107156
0.000115712
0.000115705
0.000115712
0.000115705
0.000107096
0.000107158
0.000115717
0.000115701
0.000115717
0.0001157
0.000115708
0.000115721
0.000115707
0.00010709
0.000107151
0.000115713
0.000115717
0.000115713
0.000107148
0.000107095
0.000107156
0.000115713
0.000115705
0.000115712
0.000115705
0.000107096
0.000107158
0.000115717
0.000115701
0.000115717
0.0001157
0.000115708
0.000115722
0.000115708
0.00010709
0.000107151
0.000115713
0.000115717
0.000115713
0.000107147
0.000107095
0.000107156
0.000115712
0.000115705
0.000115712
0.000115705
0.000107096
0.000107158
0.000115717
0.000115701
0.000115717
0.0001157
0.000115708
0.000115721
0.000115708
0.00010709
0.000107151
0.000115714
0.000115717
0.000115714
0.000107148
0.000107095
0.000107156
0.000115712
0.000115705
0.000115712
0.000115704
0.000107096
0.000107158
0.000115717
0.000115701
0.000115717
0.0001157
0.000115708
0.000115721
0.000115708
0.000107089
0.000107151
0.000115714
0.000115717
0.000115713
0.000107148
0.000107095
0.000107156
0.000115712
0.000115705
0.000115712
0.000115704
0.000107096
0.000107158
0.000115717
0.0001157
0.000115717
0.0001157
0.000115708
0.000115722
0.000115707
0.000107089
0.000107151
0.000115713
0.000115717
0.000115713
0.000107148
0.000107095
0.000107156
0.000115712
0.000115705
0.000115712
0.000115704
0.000107096
0.000107158
0.000115717
0.0001157
0.000115717
0.0001157
0.000115708
0.000115722
0.000115707
0.000107089
0.000107151
0.000115713
0.000115717
0.000115713
0.000107147
0.000107095
0.000107156
0.000115712
0.000115705
0.000115712
0.000115705
0.000107096
0.000107158
0.000115717
0.000115701
0.000115717
0.000115701
0.000115708
0.000115722
0.000115708
0.000107089
0.000107151
0.000115714
0.000115717
0.000115714
0.000107148
0.000107095
0.000107156
0.000115713
0.000115706
0.000115713
0.000115706
0.000107096
0.000107158
0.000115718
0.000115701
0.000115718
0.000115701
0.000115709
0.000115721
0.000115709
0.000107089
0.000107151
0.000115715
0.000115717
0.000115715
0.000107148
0.000107095
0.000107156
0.000115713
0.000115706
0.000115713
0.000115706
0.000107096
0.000107158
0.000115718
0.000115702
0.000115718
0.000115701
0.000115709
0.000115721
0.000115709
0.00010709
0.000107151
0.000115715
0.000115717
0.000115715
0.000107149
0.000107095
0.000107157
0.000115714
0.000115707
0.000115713
0.000115706
0.000107097
0.000107158
0.000115719
0.000115702
0.000115718
0.000115702
0.00011571
0.000115721
0.000115709
0.00010709
0.000107151
0.000115715
0.000115717
0.000115715
0.000107149
0.000107095
0.000107157
0.000115714
0.000115707
0.000115713
0.000115706
0.000107097
0.000107158
0.000115719
0.000115702
0.000115718
0.000115702
0.00011571
0.000115721
0.000115709
0.00010709
0.000107151
0.000115715
0.000115717
0.000115715
0.000107148
0.000107095
0.000107157
0.000115714
0.000115707
0.000115713
0.000115706
0.000107097
0.000107158
0.000115719
0.000115702
0.000115718
0.000115702
0.00011571
0.000115721
0.000115709
0.00010709
0.000107151
0.000115715
0.000115717
0.000115715
0.000107148
0.000107096
0.000107157
0.000115714
0.000115706
0.000115713
0.000115705
0.000107097
0.000107158
0.000115719
0.000115702
0.000115718
0.000115702
0.000115709
0.000115721
0.000115709
0.00010709
0.000107151
0.000115715
0.000115717
0.000115715
0.000107148
0.000107096
0.000107157
0.000115714
0.000115706
0.000115713
0.000115705
0.000107097
0.000107158
0.000115719
0.000115702
0.000115718
0.000115702
0.00011571
0.000115721
0.000115709
0.00010709
0.000107151
0.000115715
0.000115717
0.000115714
0.000107149
0.000107096
0.000107157
0.000115714
0.000115706
0.000115713
0.000115706
0.000107097
0.000107159
0.000115719
0.000115702
0.000115719
0.000115702
0.00011571
0.000115722
0.000115709
0.00010709
0.000107152
0.000115715
0.000115718
0.000115714
0.000107149
0.000107096
0.000107158
0.000115714
0.000115707
0.000115714
0.000115707
0.000107097
0.000107159
0.00011572
0.000115703
0.000115719
0.000115702
0.00011571
0.000115722
0.00011571
0.000107091
0.000107152
0.000115716
0.000115718
0.000115715
0.000107149
0.000107097
0.000107159
0.000115716
0.000115708
0.000115715
0.000115708
0.000107098
0.00010716
0.000115721
0.000115704
0.00011572
0.000115704
0.000115711
0.000115724
0.000115711
0.000107091
0.000107153
0.000115717
0.000115719
0.000115717
0.00010715
0.000107098
0.00010716
0.000115717
0.00011571
0.000115718
0.000115711
0.000107099
0.000107162
0.000115723
0.000115706
0.000115723
0.000115706
0.000115713
0.000115726
0.000115714
0.000107092
0.000107155
0.000115719
0.000115722
0.000115719
0.000107152
0.0001071
0.000107163
0.000115721
0.000115713
0.000115723
0.000115715
0.000107101
0.000107165
0.000115726
0.000115709
0.000115728
0.000115711
0.000115717
0.000115731
0.000115718
0.000107094
0.000107158
0.000115722
0.000115727
0.000115724
0.000107155
0.000107103
0.000107168
0.000115727
0.00011572
0.000115732
0.000115725
0.000107104
0.000107169
0.000115732
0.000115715
0.000115737
0.00011572
0.000115723
0.00011574
0.000115727
0.000107097
0.000107162
0.000115728
0.000115736
0.000115733
0.000107159
0.000107108
0.000107178
0.000115738
0.000115731
0.000115755
0.000115749
0.000107109
0.00010718
0.000115743
0.000115727
0.000115761
0.000115744
0.000115733
0.000115764
0.00011575
0.000107102
0.000107173
0.000115739
0.00011576
0.000115758
0.000107171
0.000107118
0.000107671
0.000115731
0.000115725
0.000116332
0.000116327
0.000107119
0.000107672
0.000115737
0.00011572
0.000116337
0.000116323
0.000115726
0.000116339
0.000116328
0.000107112
0.000107666
0.000115734
0.000116336
0.000116333
0.000107666
0.000108237
0.000116485
0.00011648
0.000108237
0.000116489
0.000116477
0.000125309
0.000125308
0.000125307
0.000116481
0.000108232
0.000116486
0.000113878
3.85787e-05
8.52073e-05
8.51268e-05
5.6677e-07
7.48359e-06
5.2513e-06
5.958e-05
5.3534e-07
6.94958e-06
5.9606e-05
2.30313e-06
2.1759e-06
1.15621e-06
1.61646e-06
9.93505e-07
1.3793e-05
9.06782e-07
1.54506e-05
1.09354e-05
1.31544e-05
9.70743e-07
1.53047e-05
8.50709e-07
1.70785e-05
6.01907e-05
6.02223e-05
6.01693e-05
6.09451e-05
6.07538e-05
6.08542e-05
6.08135e-05
5.5621e-07
3.89617e-06
3.2058e-05
1.07527e-05
5.66071e-07
4.65263e-06
3.23482e-05
1.11073e-05
1.31992e-05
5.32808e-07
3.256e-05
8.1429e-07
9.08316e-06
5.36928e-07
3.26342e-05
9.71107e-07
1.4207e-06
1.46186e-06
2.15291e-06
1.65142e-06
1.64908e-06
1.21918e-06
1.88136e-05
1.10898e-06
2.12926e-05
1.7201e-05
1.94325e-05
1.19949e-06
2.0883e-05
1.08352e-06
2.36067e-05
6.13735e-05
6.14247e-05
6.13876e-05
6.31159e-05
6.31888e-05