/*--------------------------------*- C++ -*----------------------------------*\
| =========                 |                                                 |
| \\      /  F ield         | OpenFOAM: The Open Source CFD Toolbox           |
|  \\    /   O peration     | Version:  v1906                                 |
|   \\  /    A nd           | Web:      www.OpenFOAM.com                      |
|    \\/     M anipulation  |                                                 |
\*---------------------------------------------------------------------------*/
FoamFile
{
    version     2.0;
    format      ascii;
    class       volScalarField;
    location    "75";
    object      p;
}
// * * * * * * * * * * * * * * * * * * * * * * * * * * * * * * * * * * * * * //

dimensions      [0 2 -2 0 0 0 0];


internalField   nonuniform List<scalar> 
171728
(
0.00360176
0.00360171
0.0036016
0.00360366
0.00356391
0.00356354
0.00356324
0.00356644
0.00352773
0.00352686
0.003527
0.00352927
0.00348186
0.00348111
0.00348135
0.00348413
0.00343416
0.00343372
0.00343376
0.00343643
0.00338589
0.00338538
0.00338541
0.00338822
0.00333802
0.00333757
0.00333767
0.00334042
0.00329092
0.00329065
0.0032906
0.00329341
0.00324486
0.0032447
0.00324463
0.00324738
0.00319992
0.00319972
0.00319975
0.00320246
0.00315606
0.00315591
0.00315591
0.00315855
0.0031135
0.00311342
0.0031134
0.0031159
0.0030721
0.00307204
0.00307203
0.00307462
0.00303166
0.0030317
0.0030317
0.00303421
0.00299129
0.00299126
0.00299126
0.00299388
0.00294983
0.00294962
0.00294962
0.00295229
0.00290832
0.00290801
0.00290801
0.00291058
0.00286808
0.00286788
0.00286788
0.00287032
0.00282947
0.00282936
0.00282937
0.00283165
0.00279183
0.00279177
0.00279177
0.00279399
0.00275453
0.00275448
0.00275448
0.00275669
0.00271729
0.00271724
0.00271724
0.00271945
0.00268005
0.00268001
0.00268001
0.00268221
0.00264281
0.00264277
0.00264277
0.00264498
0.00260557
0.00260553
0.00260553
0.00260774
0.00256833
0.00256828
0.00256828
0.00257049
0.00253109
0.00253104
0.00253104
0.00253325
0.00249384
0.00249379
0.00249379
0.002496
0.00245659
0.00245655
0.00245655
0.00245876
0.00241934
0.0024193
0.0024193
0.00242151
0.00238209
0.00238205
0.00238205
0.00238426
0.00234484
0.00234479
0.00234479
0.002347
0.00230758
0.00230754
0.00230754
0.00230975
0.00227033
0.00227029
0.00227029
0.0022725
0.00223308
0.00223303
0.00223303
0.00223524
0.00219583
0.00219578
0.00219578
0.00219799
0.00215858
0.00215853
0.00215853
0.00216074
0.00212133
0.00212128
0.00212128
0.00212349
0.00208408
0.00208404
0.00208404
0.00208624
0.00204683
0.00204679
0.00204679
0.002049
0.00200959
0.00200954
0.00200954
0.00201175
0.00197234
0.0019723
0.0019723
0.00197451
0.0019351
0.00193505
0.00193505
0.00193726
0.00189785
0.00189781
0.00189781
0.00190002
0.00186061
0.00186056
0.00186056
0.00186277
0.00182336
0.00182332
0.00182332
0.00182553
0.00178612
0.00178608
0.00178608
0.00178828
0.00174888
0.00174883
0.00174883
0.00175104
0.00171164
0.00171159
0.00171159
0.0017138
0.00167439
0.00167435
0.00167435
0.00167656
0.00163715
0.00163711
0.00163711
0.00163932
0.00159991
0.00159986
0.00159986
0.00160207
0.00156267
0.00156262
0.00156262
0.00156483
0.00152542
0.00152538
0.00152538
0.00152758
0.00148818
0.00148813
0.00148813
0.00149034
0.00145093
0.00145088
0.00145088
0.00145309
0.00141368
0.00141363
0.00141363
0.00141584
0.00137643
0.00137638
0.00137638
0.00137859
0.00133918
0.00133913
0.00133913
0.00134134
0.00130193
0.00130188
0.00130188
0.00130409
0.00126467
0.00126463
0.00126463
0.00126684
0.00122742
0.00122738
0.00122738
0.00122959
0.00119017
0.00119013
0.00119013
0.00119234
0.00115292
0.00115288
0.00115288
0.00115508
0.00111567
0.00111563
0.00111563
0.00111783
0.00107842
0.00107838
0.00107838
0.00108059
0.00104117
0.00104113
0.00104113
0.00104334
0.00100392
0.00100388
0.00100388
0.00100609
0.000966675
0.00096663
0.00096663
0.000968839
0.000929427
0.000929382
0.000929382
0.000931591
0.000892179
0.000892134
0.000892135
0.000894344
0.000854931
0.000854886
0.000854886
0.000857095
0.000817682
0.000817637
0.000817637
0.000819846
0.000780434
0.000780389
0.000780389
0.000782598
0.000743184
0.00074314
0.00074314
0.000745349
0.000705935
0.00070589
0.00070589
0.000708099
0.000668686
0.000668641
0.000668641
0.00067085
0.000631437
0.000631392
0.000631392
0.000633601
0.000594188
0.000594143
0.000594143
0.000596352
0.00055694
0.000556895
0.000556895
0.000559104
0.000519693
0.000519648
0.000519648
0.000521857
0.000482446
0.000482401
0.000482401
0.000484609
0.0004452
0.000445154
0.000445154
0.000447363
0.000407954
0.000407909
0.000407909
0.000410117
0.000370709
0.000370664
0.000370664
0.000372872
0.000333463
0.000333418
0.000333418
0.000335625
0.000296217
0.000296172
0.000296172
0.000298378
0.00025897
0.000258925
0.000258925
0.000261128
0.00022172
0.000221677
0.000221676
0.000223877
0.000184467
0.000184425
0.000184425
0.000186618
0.000147207
0.000147168
0.000147168
0.000149351
0.00010993
0.0001099
0.0001099
0.000112065
7.2659e-05
7.26192e-05
7.26177e-05
7.4756e-05
3.62377e-05
3.57019e-05
3.56981e-05
3.76218e-05
5.7114e-06
5.54452e-06
5.54422e-06
5.46487e-06
0.00360953
0.00360884
0.00360885
0.00360956
0.00360886
0.00360877
0.00361126
0.00361129
0.00361121
0.00361124
0.00360885
0.00360881
0.00360948
0.00360877
0.00360879
0.00360949
0.00360369
0.00357057
0.00360167
0.00360168
0.00357201
0.00357209
0.00360373
0.00357057
0.00360168
0.00360164
0.0035721
0.00357204
0.00360164
0.00357212
0.00357209
0.00360364
0.0035705
0.00360164
0.00357209
0.00357199
0.00357053
0.00356647
0.00353462
0.00356335
0.0035634
0.00353717
0.00353724
0.00356648
0.00353456
0.00356353
0.00356334
0.00353721
0.00353715
0.00356332
0.00353715
0.00353718
0.0035664
0.00353462
0.00356336
0.00353724
0.00353715
0.00353461
0.00352926
0.0034902
0.00352709
0.00352701
0.0034932
0.00349319
0.00352919
0.00349015
0.00352711
0.00352712
0.00349326
0.00349313
0.00352704
0.00349311
0.00349313
0.00352928
0.00349023
0.00352706
0.0034932
0.0034932
0.00349021
0.00348412
0.00344249
0.00348139
0.00348135
0.00344566
0.0034457
0.00348409
0.00344263
0.00348161
0.00348147
0.00344575
0.00344573
0.00348138
0.00344549
0.00344568
0.00348416
0.0034426
0.00348137
0.00344563
0.00344572
0.00344259
0.00343636
0.00339439
0.00343364
0.00343368
0.00339748
0.00339742
0.00343648
0.00339438
0.00343375
0.00343369
0.00339738
0.0033975
0.00343369
0.00339767
0.00339752
0.00343647
0.00339438
0.00343372
0.00339753
0.0033975
0.00339439
0.00338823
0.00334651
0.00338543
0.00338551
0.00334954
0.00334949
0.00338822
0.00334644
0.00338544
0.00338546
0.00334948
0.00334957
0.00338545
0.00334963
0.00334955
0.0033882
0.00334645
0.00338545
0.00334953
0.00334956
0.00334648
0.00334044
0.0032994
0.0033376
0.00333758
0.00330228
0.00330222
0.00334039
0.00329938
0.00333754
0.00333761
0.00330232
0.0033023
0.00333759
0.00330248
0.00330228
0.0033404
0.00329941
0.00333766
0.00330234
0.00330236
0.00329938
0.00329342
0.00325324
0.00329066
0.00329043
0.00325607
0.00325592
0.00329342
0.00325323
0.00329058
0.00329057
0.00325603
0.00325603
0.00329063
0.00325613
0.00325599
0.00329343
0.00325322
0.0032906
0.00325601
0.00325606
0.00325323
0.00324741
0.00320819
0.00324468
0.00324453
0.00321091
0.00321087
0.0032474
0.00320821
0.00324461
0.0032446
0.00321085
0.00321085
0.00324464
0.00321081
0.00321083
0.00324739
0.00320817
0.0032446
0.00321082
0.00321088
0.00320815
0.00320251
0.00316413
0.00319977
0.00319974
0.00316678
0.00316678
0.00320251
0.00316414
0.00319974
0.00319973
0.00316675
0.00316677
0.00319972
0.00316675
0.00316672
0.00320248
0.0031641
0.00319974
0.00316674
0.00316673
0.00316416
0.00315855
0.00312132
0.00315595
0.00315593
0.0031239
0.00312396
0.00315855
0.00312131
0.00315589
0.0031559
0.00312394
0.00312396
0.00315588
0.00312392
0.00312383
0.00315853
0.0031213
0.0031559
0.0031239
0.00312384
0.00312124
0.00311595
0.00307977
0.0031134
0.00311345
0.00308224
0.00308227
0.00311593
0.00307983
0.00311341
0.00311345
0.00308228
0.00308228
0.00311336
0.00308231
0.00308235
0.00311592
0.00307984
0.00311334
0.00308229
0.00308233
0.00307989
0.00307451
0.00303937
0.00307197
0.003072
0.00304172
0.00304172
0.00307456
0.00303934
0.00307201
0.00307202
0.00304173
0.00304172
0.00307208
0.00304173
0.00304174
0.00307456
0.00303934
0.00307207
0.00304173
0.00304174
0.00303936
0.00303422
0.00299922
0.00303171
0.0030317
0.00300151
0.0030015
0.00303419
0.00299921
0.00303169
0.00303171
0.0030015
0.0030015
0.00303171
0.00300149
0.00300149
0.00303419
0.00299921
0.00303171
0.0030015
0.00300149
0.00299921
0.0029939
0.00295775
0.00299127
0.00299126
0.00296009
0.00296009
0.00299389
0.00295775
0.00299127
0.00299126
0.00296009
0.00296009
0.00299125
0.00296009
0.00296008
0.00299389
0.00295775
0.00299125
0.00296009
0.00296009
0.00295775
0.0029523
0.00291599
0.00294962
0.00294962
0.00291832
0.00291832
0.00295229
0.00291599
0.00294962
0.00294962
0.00291833
0.00291833
0.00294962
0.00291832
0.00291832
0.0029523
0.00291599
0.00294962
0.00291832
0.00291832
0.002916
0.00291057
0.00287549
0.00290803
0.00290803
0.00287775
0.00287775
0.00291058
0.0028755
0.00290804
0.00290803
0.00287775
0.00287775
0.002908
0.00287775
0.00287775
0.00291058
0.0028755
0.00290801
0.00287776
0.00287775
0.0028755
0.00287032
0.00283664
0.00286788
0.00286788
0.00283887
0.00283887
0.00287032
0.00283664
0.00286788
0.00286787
0.00283887
0.00283887
0.00286788
0.00283887
0.00283887
0.00287032
0.00283664
0.00286788
0.00283887
0.00283887
0.00283664
0.00283165
0.0027989
0.00282937
0.00282936
0.00280112
0.00280112
0.00283165
0.0027989
0.00282936
0.00282936
0.00280112
0.00280113
0.00282937
0.00280112
0.00280113
0.00283165
0.00279891
0.00282936
0.00280113
0.00280113
0.0027989
0.00279399
0.00276159
0.00279177
0.00279177
0.0027638
0.0027638
0.00279399
0.00276159
0.00279177
0.00279177
0.0027638
0.0027638
0.00279177
0.0027638
0.0027638
0.00279399
0.00276159
0.00279178
0.0027638
0.0027638
0.00276159
0.00275669
0.00272435
0.00275448
0.00275448
0.00272655
0.00272655
0.00275669
0.00272435
0.00275448
0.00275448
0.00272655
0.00272655
0.00275448
0.00272655
0.00272655
0.00275669
0.00272435
0.00275448
0.00272655
0.00272655
0.00272435
0.00271945
0.00268711
0.00271724
0.00271724
0.00268931
0.00268931
0.00271945
0.00268711
0.00271724
0.00271724
0.00268931
0.00268931
0.00271724
0.00268931
0.00268931
0.00271945
0.00268711
0.00271724
0.00268931
0.00268931
0.00268711
0.00268221
0.00264987
0.00268001
0.00268001
0.00265208
0.00265208
0.00268221
0.00264987
0.00268001
0.00268001
0.00265208
0.00265208
0.00268001
0.00265208
0.00265208
0.00268221
0.00264987
0.00268001
0.00265208
0.00265208
0.00264987
0.00264498
0.00261263
0.00264277
0.00264277
0.00261484
0.00261484
0.00264498
0.00261263
0.00264277
0.00264277
0.00261484
0.00261484
0.00264277
0.00261484
0.00261484
0.00264498
0.00261263
0.00264277
0.00261484
0.00261484
0.00261263
0.00260773
0.00257539
0.00260553
0.00260553
0.0025776
0.00257759
0.00260773
0.00257539
0.00260553
0.00260553
0.00257759
0.0025776
0.00260553
0.0025776
0.0025776
0.00260773
0.00257539
0.00260553
0.00257759
0.0025776
0.00257539
0.00257049
0.00253815
0.00256828
0.00256828
0.00254035
0.00254035
0.00257049
0.00253815
0.00256828
0.00256828
0.00254035
0.00254035
0.00256828
0.00254035
0.00254035
0.00257049
0.00253815
0.00256828
0.00254035
0.00254035
0.00253815
0.00253325
0.0025009
0.00253104
0.00253104
0.00250311
0.00250311
0.00253325
0.0025009
0.00253104
0.00253104
0.00250311
0.00250311
0.00253104
0.00250311
0.00250311
0.00253325
0.0025009
0.00253104
0.00250311
0.00250311
0.0025009
0.002496
0.00246365
0.0024938
0.00249379
0.00246586
0.00246586
0.002496
0.00246365
0.00249379
0.00249379
0.00246586
0.00246586
0.0024938
0.00246586
0.00246586
0.002496
0.00246365
0.00249379
0.00246586
0.00246586
0.00246365
0.00245876
0.00242641
0.00245655
0.00245655
0.00242861
0.00242861
0.00245876
0.00242641
0.00245655
0.00245655
0.00242861
0.00242861
0.00245655
0.00242861
0.00242861
0.00245876
0.00242641
0.00245655
0.00242861
0.00242861
0.00242641
0.00242151
0.00238915
0.0024193
0.0024193
0.00239136
0.00239136
0.00242151
0.00238915
0.0024193
0.0024193
0.00239136
0.00239136
0.0024193
0.00239136
0.00239136
0.00242151
0.00238915
0.0024193
0.00239136
0.00239136
0.00238915
0.00238425
0.0023519
0.00238205
0.00238205
0.00235411
0.00235411
0.00238425
0.0023519
0.00238205
0.00238205
0.00235411
0.00235411
0.00238205
0.00235411
0.00235411
0.00238426
0.0023519
0.00238205
0.00235411
0.00235411
0.0023519
0.002347
0.00231465
0.00234479
0.00234479
0.00231685
0.00231685
0.002347
0.00231465
0.00234479
0.00234479
0.00231685
0.00231685
0.00234479
0.00231685
0.00231685
0.002347
0.00231465
0.00234479
0.00231685
0.00231685
0.00231465
0.00230975
0.00227739
0.00230754
0.00230754
0.0022796
0.0022796
0.00230975
0.00227739
0.00230754
0.00230754
0.0022796
0.0022796
0.00230754
0.0022796
0.0022796
0.00230975
0.00227739
0.00230754
0.0022796
0.0022796
0.00227739
0.0022725
0.00224014
0.00227029
0.00227029
0.00224235
0.00224235
0.00227249
0.00224014
0.00227029
0.00227029
0.00224235
0.00224235
0.00227029
0.00224235
0.00224235
0.0022725
0.00224014
0.00227029
0.00224235
0.00224235
0.00224014
0.00223524
0.00220289
0.00223303
0.00223303
0.0022051
0.00220509
0.00223524
0.00220289
0.00223303
0.00223303
0.00220509
0.0022051
0.00223303
0.00220509
0.0022051
0.00223524
0.00220289
0.00223303
0.00220509
0.0022051
0.00220289
0.00219799
0.00216564
0.00219578
0.00219578
0.00216784
0.00216784
0.00219799
0.00216564
0.00219578
0.00219578
0.00216784
0.00216784
0.00219578
0.00216784
0.00216784
0.00219799
0.00216564
0.00219578
0.00216784
0.00216784
0.00216564
0.00216074
0.00212839
0.00215853
0.00215853
0.0021306
0.0021306
0.00216074
0.00212839
0.00215853
0.00215853
0.0021306
0.0021306
0.00215853
0.0021306
0.0021306
0.00216074
0.00212839
0.00215853
0.0021306
0.0021306
0.00212839
0.00212349
0.00209114
0.00212128
0.00212128
0.00209335
0.00209335
0.00212349
0.00209114
0.00212128
0.00212128
0.00209335
0.00209335
0.00212128
0.00209335
0.00209335
0.00212349
0.00209114
0.00212128
0.00209335
0.00209335
0.00209114
0.00208624
0.0020539
0.00208404
0.00208404
0.0020561
0.0020561
0.00208624
0.0020539
0.00208404
0.00208404
0.0020561
0.0020561
0.00208404
0.0020561
0.0020561
0.00208624
0.0020539
0.00208404
0.0020561
0.0020561
0.0020539
0.002049
0.00201665
0.00204679
0.00204679
0.00201886
0.00201885
0.002049
0.00201665
0.00204679
0.00204679
0.00201885
0.00201885
0.00204679
0.00201885
0.00201885
0.002049
0.00201665
0.00204679
0.00201885
0.00201885
0.00201665
0.00201175
0.0019794
0.00200954
0.00200954
0.00198161
0.00198161
0.00201175
0.0019794
0.00200954
0.00200954
0.00198161
0.00198161
0.00200954
0.00198161
0.00198161
0.00201175
0.0019794
0.00200954
0.00198161
0.00198161
0.0019794
0.00197451
0.00194216
0.0019723
0.0019723
0.00194436
0.00194436
0.00197451
0.00194216
0.0019723
0.0019723
0.00194436
0.00194436
0.0019723
0.00194436
0.00194436
0.00197451
0.00194216
0.0019723
0.00194436
0.00194436
0.00194216
0.00193726
0.00190491
0.00193505
0.00193505
0.00190712
0.00190712
0.00193726
0.00190491
0.00193505
0.00193505
0.00190712
0.00190712
0.00193505
0.00190712
0.00190712
0.00193726
0.00190491
0.00193505
0.00190712
0.00190712
0.00190491
0.00190002
0.00186767
0.00189781
0.00189781
0.00186987
0.00186987
0.00190002
0.00186767
0.00189781
0.00189781
0.00186987
0.00186987
0.00189781
0.00186987
0.00186987
0.00190002
0.00186767
0.00189781
0.00186987
0.00186987
0.00186767
0.00186277
0.00183043
0.00186056
0.00186056
0.00183263
0.00183263
0.00186277
0.00183043
0.00186056
0.00186056
0.00183263
0.00183263
0.00186056
0.00183263
0.00183263
0.00186277
0.00183043
0.00186056
0.00183263
0.00183263
0.00183043
0.00182553
0.00179318
0.00182332
0.00182332
0.00179539
0.00179539
0.00182553
0.00179318
0.00182332
0.00182332
0.00179539
0.00179539
0.00182332
0.00179539
0.00179539
0.00182553
0.00179318
0.00182332
0.00179539
0.00179539
0.00179318
0.00178828
0.00175594
0.00178608
0.00178608
0.00175814
0.00175814
0.00178828
0.00175594
0.00178608
0.00178608
0.00175814
0.00175814
0.00178608
0.00175814
0.00175814
0.00178828
0.00175594
0.00178608
0.00175814
0.00175814
0.00175594
0.00175104
0.0017187
0.00174883
0.00174883
0.0017209
0.0017209
0.00175104
0.0017187
0.00174883
0.00174883
0.0017209
0.0017209
0.00174883
0.0017209
0.0017209
0.00175104
0.0017187
0.00174883
0.0017209
0.0017209
0.0017187
0.0017138
0.00168146
0.00171159
0.00171159
0.00168366
0.00168366
0.0017138
0.00168146
0.00171159
0.00171159
0.00168366
0.00168366
0.00171159
0.00168366
0.00168366
0.0017138
0.00168146
0.00171159
0.00168366
0.00168366
0.00168146
0.00167656
0.00164421
0.00167435
0.00167435
0.00164642
0.00164642
0.00167656
0.00164421
0.00167435
0.00167435
0.00164642
0.00164642
0.00167435
0.00164642
0.00164642
0.00167656
0.00164421
0.00167435
0.00164642
0.00164642
0.00164421
0.00163932
0.00160697
0.00163711
0.00163711
0.00160917
0.00160917
0.00163932
0.00160697
0.00163711
0.00163711
0.00160917
0.00160917
0.00163711
0.00160917
0.00160918
0.00163932
0.00160697
0.00163711
0.00160917
0.00160917
0.00160697
0.00160207
0.00156973
0.00159986
0.00159986
0.00157193
0.00157193
0.00160207
0.00156973
0.00159986
0.00159986
0.00157193
0.00157193
0.00159986
0.00157193
0.00157193
0.00160207
0.00156973
0.00159986
0.00157193
0.00157193
0.00156973
0.00156483
0.00153248
0.00156262
0.00156262
0.00153469
0.00153469
0.00156483
0.00153248
0.00156262
0.00156262
0.00153469
0.00153469
0.00156262
0.00153469
0.00153469
0.00156483
0.00153248
0.00156262
0.00153469
0.00153469
0.00153248
0.00152758
0.00149524
0.00152538
0.00152538
0.00149744
0.00149744
0.00152758
0.00149524
0.00152538
0.00152538
0.00149744
0.00149744
0.00152538
0.00149744
0.00149744
0.00152758
0.00149524
0.00152538
0.00149744
0.00149744
0.00149524
0.00149034
0.00145799
0.00148813
0.00148813
0.00146019
0.0014602
0.00149034
0.00145799
0.00148813
0.00148813
0.00146019
0.00146019
0.00148813
0.0014602
0.00146019
0.00149034
0.00145799
0.00148813
0.00146019
0.00146019
0.00145799
0.00145309
0.00142074
0.00145088
0.00145088
0.00142295
0.00142295
0.00145309
0.00142074
0.00145088
0.00145088
0.00142295
0.00142295
0.00145088
0.00142295
0.00142295
0.00145309
0.00142074
0.00145088
0.00142295
0.00142295
0.00142074
0.00141584
0.00138349
0.00141363
0.00141363
0.0013857
0.0013857
0.00141584
0.00138349
0.00141363
0.00141363
0.0013857
0.0013857
0.00141363
0.0013857
0.0013857
0.00141584
0.00138349
0.00141363
0.0013857
0.0013857
0.00138349
0.00137859
0.00134624
0.00137638
0.00137638
0.00134844
0.00134844
0.00137859
0.00134624
0.00137638
0.00137638
0.00134844
0.00134844
0.00137638
0.00134844
0.00134844
0.00137859
0.00134624
0.00137638
0.00134844
0.00134844
0.00134624
0.00134134
0.00130899
0.00133913
0.00133913
0.00131119
0.00131119
0.00134134
0.00130899
0.00133913
0.00133913
0.00131119
0.00131119
0.00133913
0.00131119
0.00131119
0.00134134
0.00130899
0.00133913
0.00131119
0.00131119
0.00130899
0.00130409
0.00127174
0.00130188
0.00130188
0.00127394
0.00127394
0.00130409
0.00127174
0.00130188
0.00130188
0.00127394
0.00127394
0.00130188
0.00127394
0.00127394
0.00130409
0.00127174
0.00130188
0.00127394
0.00127394
0.00127174
0.00126684
0.00123449
0.00126463
0.00126463
0.00123669
0.00123669
0.00126684
0.00123449
0.00126463
0.00126463
0.00123669
0.00123669
0.00126463
0.00123669
0.00123669
0.00126684
0.00123449
0.00126463
0.00123669
0.00123669
0.00123449
0.00122959
0.00119723
0.00122738
0.00122738
0.00119944
0.00119944
0.00122959
0.00119723
0.00122738
0.00122738
0.00119944
0.00119944
0.00122738
0.00119944
0.00119944
0.00122959
0.00119723
0.00122738
0.00119944
0.00119944
0.00119723
0.00119234
0.00115998
0.00119013
0.00119013
0.00116219
0.00116219
0.00119234
0.00115998
0.00119013
0.00119013
0.00116219
0.00116219
0.00119013
0.00116219
0.00116219
0.00119234
0.00115998
0.00119013
0.00116219
0.00116219
0.00115998
0.00115508
0.00112273
0.00115288
0.00115288
0.00112494
0.00112494
0.00115508
0.00112273
0.00115288
0.00115288
0.00112494
0.00112494
0.00115288
0.00112494
0.00112494
0.00115508
0.00112273
0.00115288
0.00112494
0.00112494
0.00112273
0.00111783
0.00108548
0.00111563
0.00111563
0.00108769
0.00108769
0.00111783
0.00108548
0.00111563
0.00111563
0.00108769
0.00108769
0.00111563
0.00108769
0.00108769
0.00111783
0.00108548
0.00111563
0.00108769
0.00108769
0.00108548
0.00108058
0.00104823
0.00107838
0.00107838
0.00105044
0.00105044
0.00108058
0.00104823
0.00107838
0.00107838
0.00105044
0.00105044
0.00107838
0.00105044
0.00105044
0.00108058
0.00104823
0.00107838
0.00105044
0.00105044
0.00104823
0.00104334
0.00101099
0.00104113
0.00104113
0.00101319
0.00101319
0.00104334
0.00101099
0.00104113
0.00104113
0.00101319
0.00101319
0.00104113
0.00101319
0.00101319
0.00104334
0.00101099
0.00104113
0.00101319
0.00101319
0.00101099
0.00100609
0.000973737
0.00100388
0.00100388
0.000975942
0.000975942
0.00100609
0.000973738
0.00100388
0.00100388
0.000975942
0.000975942
0.00100388
0.000975942
0.000975942
0.00100609
0.000973737
0.00100388
0.000975942
0.000975942
0.000973737
0.000968839
0.000936489
0.00096663
0.00096663
0.000938694
0.000938694
0.000968839
0.000936489
0.00096663
0.00096663
0.000938694
0.000938694
0.00096663
0.000938694
0.000938694
0.000968839
0.000936489
0.00096663
0.000938694
0.000938694
0.000936489
0.000931591
0.000899241
0.000929382
0.000929382
0.000901446
0.000901446
0.000931591
0.000899242
0.000929382
0.000929382
0.000901446
0.000901447
0.000929382
0.000901446
0.000901447
0.000931591
0.000899242
0.000929382
0.000901447
0.000901447
0.000899242
0.000894343
0.000861993
0.000892134
0.000892134
0.000864198
0.000864198
0.000894343
0.000861993
0.000892134
0.000892135
0.000864198
0.000864198
0.000892135
0.000864198
0.000864198
0.000894343
0.000861993
0.000892135
0.000864198
0.000864198
0.000861993
0.000857095
0.000824745
0.000854886
0.000854886
0.00082695
0.00082695
0.000857095
0.000824745
0.000854886
0.000854886
0.00082695
0.00082695
0.000854886
0.00082695
0.00082695
0.000857095
0.000824745
0.000854886
0.00082695
0.00082695
0.000824745
0.000819846
0.000787496
0.000817638
0.000817637
0.000789701
0.000789701
0.000819846
0.000787496
0.000817637
0.000817638
0.000789701
0.000789701
0.000817638
0.000789701
0.000789701
0.000819846
0.000787496
0.000817638
0.000789701
0.000789701
0.000787496
0.000782598
0.000750247
0.000780389
0.000780389
0.000752452
0.000752452
0.000782597
0.000750247
0.000780389
0.000780389
0.000752452
0.000752452
0.000780389
0.000752452
0.000752452
0.000782598
0.000750247
0.000780389
0.000752452
0.000752452
0.000750247
0.000745348
0.000712998
0.00074314
0.00074314
0.000715203
0.000715202
0.000745348
0.000712998
0.000743139
0.00074314
0.000715202
0.000715203
0.00074314
0.000715202
0.000715203
0.000745348
0.000712998
0.00074314
0.000715202
0.000715202
0.000712998
0.000708099
0.000675748
0.00070589
0.00070589
0.000677953
0.000677953
0.000708099
0.000675749
0.00070589
0.00070589
0.000677953
0.000677953
0.000705891
0.000677953
0.000677953
0.000708099
0.000675748
0.00070589
0.000677953
0.000677953
0.000675748
0.00067085
0.000638499
0.000668641
0.000668641
0.000640704
0.000640704
0.00067085
0.0006385
0.000668641
0.000668641
0.000640704
0.000640704
0.000668642
0.000640704
0.000640704
0.00067085
0.000638499
0.000668641
0.000640704
0.000640704
0.000638499
0.000633601
0.000601251
0.000631392
0.000631392
0.000603456
0.000603456
0.000633601
0.000601251
0.000631392
0.000631392
0.000603456
0.000603456
0.000631392
0.000603456
0.000603456
0.000633601
0.000601251
0.000631392
0.000603456
0.000603456
0.000601251
0.000596352
0.000564003
0.000594143
0.000594143
0.000566208
0.000566208
0.000596352
0.000564003
0.000594143
0.000594143
0.000566207
0.000566208
0.000594143
0.000566208
0.000566208
0.000596352
0.000564003
0.000594143
0.000566208
0.000566208
0.000564003
0.000559104
0.000526755
0.000556895
0.000556895
0.000528959
0.000528959
0.000559104
0.000526755
0.000556895
0.000556895
0.000528959
0.000528959
0.000556895
0.000528959
0.000528959
0.000559104
0.000526754
0.000556895
0.000528959
0.000528959
0.000526754
0.000521857
0.000489507
0.000519648
0.000519648
0.000491712
0.000491712
0.000521857
0.000489507
0.000519648
0.000519648
0.000491712
0.000491712
0.000519648
0.000491712
0.000491712
0.000521857
0.000489507
0.000519648
0.000491712
0.000491712
0.000489507
0.000484609
0.000452261
0.000482401
0.000482401
0.000454466
0.000454466
0.000484609
0.000452262
0.000482401
0.000482401
0.000454466
0.000454466
0.000482401
0.000454466
0.000454466
0.000484609
0.000452261
0.000482401
0.000454466
0.000454466
0.000452261
0.000447363
0.000415016
0.000445154
0.000445154
0.00041722
0.00041722
0.000447362
0.000415016
0.000445154
0.000445154
0.00041722
0.00041722
0.000445154
0.00041722
0.00041722
0.000447363
0.000415016
0.000445154
0.00041722
0.00041722
0.000415016
0.000410117
0.00037777
0.000407909
0.000407909
0.000379975
0.000379974
0.000410117
0.00037777
0.000407909
0.000407909
0.000379974
0.000379975
0.000407909
0.000379975
0.000379975
0.000410117
0.00037777
0.000407909
0.000379975
0.000379975
0.00037777
0.000372872
0.000340526
0.000370664
0.000370664
0.00034273
0.00034273
0.000372871
0.000340526
0.000370664
0.000370664
0.000342729
0.00034273
0.000370664
0.00034273
0.00034273
0.000372872
0.000340526
0.000370664
0.00034273
0.00034273
0.000340526
0.000335625
0.00030328
0.000333418
0.000333418
0.000305483
0.000305483
0.000335625
0.00030328
0.000333418
0.000333418
0.000305483
0.000305483
0.000333418
0.000305483
0.000305483
0.000335625
0.00030328
0.000333418
0.000305483
0.000305483
0.00030328
0.000298378
0.000266034
0.000296172
0.000296172
0.000268236
0.000268236
0.000298378
0.000266034
0.000296172
0.000296172
0.000268236
0.000268236
0.000296172
0.000268236
0.000268236
0.000298378
0.000266033
0.000296172
0.000268236
0.000268236
0.000266034
0.000261128
0.000228787
0.000258925
0.000258925
0.000230988
0.000230988
0.000261128
0.000228787
0.000258925
0.000258925
0.000230988
0.000230988
0.000258925
0.000230988
0.000230988
0.000261128
0.000228787
0.000258925
0.000230988
0.000230988
0.000228787
0.000223877
0.000191538
0.000221677
0.000221677
0.000193737
0.000193737
0.000223876
0.000191538
0.000221676
0.000221677
0.000193737
0.000193737
0.000221677
0.000193737
0.000193737
0.000223877
0.000191538
0.000221677
0.000193737
0.000193737
0.000191538
0.000186618
0.000154286
0.000184425
0.000184425
0.000156481
0.000156481
0.000186618
0.000154286
0.000184425
0.000184425
0.000156481
0.000156481
0.000184425
0.000156481
0.000156481
0.000186618
0.000154286
0.000184425
0.000156481
0.000156481
0.000154286
0.00014935
0.000117025
0.000147168
0.000147168
0.000119215
0.000119215
0.000149351
0.000117026
0.000147168
0.000147168
0.000119215
0.000119215
0.000147168
0.000119215
0.000119215
0.00014935
0.000117025
0.000147168
0.000119214
0.000119215
0.000117025
0.000112065
7.97497e-05
0.0001099
0.0001099
8.19337e-05
8.1934e-05
0.000112065
7.97506e-05
0.0001099
0.0001099
8.19331e-05
8.19328e-05
0.0001099
8.19337e-05
8.19331e-05
0.000112065
7.97489e-05
0.0001099
8.19327e-05
8.19329e-05
7.97491e-05
7.47571e-05
4.25696e-05
7.26192e-05
7.26195e-05
4.47662e-05
4.4767e-05
7.47573e-05
4.25708e-05
7.26182e-05
7.26177e-05
4.47647e-05
4.47632e-05
7.26184e-05
4.47659e-05
4.47631e-05
7.47563e-05
4.25669e-05
7.26179e-05
4.47628e-05
4.47621e-05
4.25666e-05
3.76257e-05
8.80515e-06
3.57027e-05
3.57036e-05
1.11866e-05
1.11861e-05
3.76264e-05
8.80509e-06
3.57014e-05
3.56989e-05
1.11845e-05
1.11808e-05
3.56982e-05
1.11838e-05
1.11791e-05
3.76223e-05
8.80108e-06
3.56978e-05
1.11817e-05
1.11803e-05
8.79842e-06
5.47047e-06
5.54871e-06
5.54708e-06
5.47131e-06
5.54354e-06
5.5428e-06
5.71104e-06
5.70907e-06
5.70842e-06
5.54152e-06
5.46804e-06
5.54067e-06
0.0036158
0.0036209
0.00361843
0.00361843
0.00363869
0.00362281
0.003648
0.00362007
0.0036386
0.00362276
0.00362008
0.00364789
0.00362963
0.00365117
0.00365104
0.00358477
0.00359995
0.0036035
0.00357681
0.00357693
0.00358036
0.00358474
0.00359985
0.00360343
0.00357673
0.00360178
0.00360173
0.00360174
0.00357262
0.00357261
0.00357261
0.0035726
0.00358455
0.00359868
0.00360235
0.00359157
0.00360468
0.00358154
0.00359221
0.00357701
0.00358027
0.00358445
0.00360241
0.00359835
0.0035915
0.00360461
0.00359208
0.00358099
0.00360384
0.00360374
0.00358813
0.00358106
0.00358102
0.00355781
0.00357107
0.00357052
0.00355587
0.00356844
0.0035551
0.0035577
0.00357095
0.00357056
0.00355587
0.00356389
0.00356391
0.00356392
0.00353777
0.00353775
0.0035378
0.00353778
0.00355531
0.00356998
0.00356333
0.00355513
0.00356784
0.00355633
0.00355479
0.00356818
0.00355503
0.0035553
0.00356319
0.00356972
0.00355517
0.00356779
0.00355478
0.00355609
0.00357138
0.00357132
0.003554
0.00355675
0.00355673
0.00351529
0.00353055
0.00353122
0.00351419
0.00352936
0.0035132
0.00351544
0.00353054
0.00353125
0.00351408
0.0035277
0.00352777
0.00352775
0.00349373
0.00349371
0.00349376
0.00349375
0.00351367
0.00353024
0.00352667
0.00351639
0.00352929
0.00351439
0.00351591
0.0035293
0.00351331
0.00351375
0.00352675
0.00353017
0.0035163
0.00352935
0.00351595
0.00351458
0.00353068
0.0035307
0.00351323
0.00351456
0.00351459
0.00346813
0.00348511
0.00348651
0.00346691
0.00348434
0.00346641
0.00346824
0.00348503
0.00348654
0.00346689
0.00348186
0.0034819
0.00348188
0.00344615
0.0034462
0.0034462
0.00344621
0.00346683
0.00348494
0.00348098
0.00346938
0.00348465
0.00346746
0.00346916
0.00348438
0.00346641
0.00346693
0.0034811
0.00348518
0.00346947
0.00348475
0.00346926
0.00346744
0.00348517
0.00348526
0.00346644
0.00346709
0.00346709
0.0034198
0.00343679
0.00343813
0.00341866
0.00343648
0.00341833
0.00341972
0.00343635
0.0034381
0.00341839
0.00343421
0.00343422
0.00343421
0.00339799
0.00339798
0.00339799
0.00339799
0.00341891
0.00343681
0.00343352
0.00342155
0.0034368
0.00341882
0.00342151
0.0034365
0.00341838
0.00341892
0.00343353
0.00343709
0.00342165
0.00343683
0.00342153
0.00341914
0.00343691
0.00343691
0.00341853
0.00341876
0.00341877
0.0033711
0.00338834
0.00338929
0.00337027
0.00338803
0.00337012
0.00337104
0.00338865
0.00338937
0.00337025
0.00338587
0.00338587
0.00338588
0.00334993
0.00334989
0.0033499
0.00334991
0.00337054
0.00338838
0.00338531
0.00337326
0.00338844
0.0033708
0.00337325
0.00338803
0.00337009
0.00337054
0.0033853