/*--------------------------------*- C++ -*----------------------------------*\
| =========                 |                                                 |
| \\      /  F ield         | OpenFOAM: The Open Source CFD Toolbox           |
|  \\    /   O peration     | Version:  v1906                                 |
|   \\  /    A nd           | Web:      www.OpenFOAM.com                      |
|    \\/     M anipulation  |                                                 |
\*---------------------------------------------------------------------------*/
FoamFile
{
    version     2.0;
    format      ascii;
    class       volScalarField;
    location    "150";
    object      epsilon;
}
// * * * * * * * * * * * * * * * * * * * * * * * * * * * * * * * * * * * * * //

dimensions      [0 2 -3 0 0 0 0];


internalField   nonuniform List<scalar> 
171728
(
2.16841e-08
5.78143e-09
5.50146e-09
4.99306e-09
2.16799e-08
5.5727e-09
5.28455e-09
4.58101e-09
2.2219e-08
5.44078e-09
5.13007e-09
4.21506e-09
2.27941e-08
5.36775e-09
5.04008e-09
3.90125e-09
2.33915e-08
5.35096e-09
5.01455e-09
3.65992e-09
2.40106e-08
5.40148e-09
5.04903e-09
3.47369e-09
2.46426e-08
5.53315e-09
5.15279e-09
3.31162e-09
2.52846e-08
5.75817e-09
5.32486e-09
3.17642e-09
2.59311e-08
6.05543e-09
5.57289e-09
3.10729e-09
2.65743e-08
6.42743e-09
5.8936e-09
3.10112e-09
2.72229e-08
6.88887e-09
6.27331e-09
3.17054e-09
2.78638e-08
7.4499e-09
6.74108e-09
3.31059e-09
2.85004e-08
8.12986e-09
7.2492e-09
3.52524e-09
2.91342e-08
8.94773e-09
7.79182e-09
3.81738e-09
2.97654e-08
9.9287e-09
8.55187e-09
4.21266e-09
3.04168e-08
1.11059e-08
9.56729e-09
4.78836e-09
3.10604e-08
1.24885e-08
1.08466e-08
5.68947e-09
3.1727e-08
1.43217e-08
1.24818e-08
7.1262e-09
3.24163e-08
1.65121e-08
1.46689e-08
9.43168e-09
3.30853e-08
1.92301e-08
1.76359e-08
1.32331e-08
3.38131e-08
2.27391e-08
2.17378e-08
1.95858e-08
3.48153e-08
2.79305e-08
2.74461e-08
2.99635e-08
3.59508e-08
3.53303e-08
3.52641e-08
4.62107e-08
3.73513e-08
4.52419e-08
4.57935e-08
7.09345e-08
3.90523e-08
5.88586e-08
5.99062e-08
1.07437e-07
4.12416e-08
7.71984e-08
7.76673e-08
1.57062e-07
4.39788e-08
9.92444e-08
9.97193e-08
2.20837e-07
4.74947e-08
1.24263e-07
1.25292e-07
2.88972e-07
5.18666e-08
1.52174e-07
1.53783e-07
3.58868e-07
5.76971e-08
1.84191e-07
1.85308e-07
4.31536e-07
6.62731e-08
2.23898e-07
2.2441e-07
5.0134e-07
7.93166e-08
2.75285e-07
2.75699e-07
5.6836e-07
9.88657e-08
3.41154e-07
3.41478e-07
6.36404e-07
1.24943e-07
4.15819e-07
4.16014e-07
7.06443e-07
1.54785e-07
4.85031e-07
4.85169e-07
7.67656e-07
1.8345e-07
5.37943e-07
5.38058e-07
8.12845e-07
2.04485e-07
5.69204e-07
5.69318e-07
8.39394e-07
2.15416e-07
5.81998e-07
5.82108e-07
8.49564e-07
2.19693e-07
5.86189e-07
5.86293e-07
8.5289e-07
2.21039e-07
5.87361e-07
5.87462e-07
8.53963e-07
2.21384e-07
5.8765e-07
5.87751e-07
8.54285e-07
2.21442e-07
5.87651e-07
5.87755e-07
8.54189e-07
2.21453e-07
5.87644e-07
5.87748e-07
8.54105e-07
2.21457e-07
5.8767e-07
5.87773e-07
8.54291e-07
2.21456e-07
5.87649e-07
5.87753e-07
8.54074e-07
2.21459e-07
5.8766e-07
5.87763e-07
8.54317e-07
2.2146e-07
5.87658e-07
5.87761e-07
8.54085e-07
2.21461e-07
5.87658e-07
5.87761e-07
8.54188e-07
2.21462e-07
5.8766e-07
5.87762e-07
8.54272e-07
2.21463e-07
5.87665e-07
5.87767e-07
8.54237e-07
2.21464e-07
5.8766e-07
5.87763e-07
8.5414e-07
2.21464e-07
5.87662e-07
5.87764e-07
8.54142e-07
2.21465e-07
5.87664e-07
5.87766e-07
8.54168e-07
2.21465e-07
5.87661e-07
5.87763e-07
8.542e-07
2.21465e-07
5.87663e-07
5.87763e-07
8.54164e-07
2.21465e-07
5.87668e-07
5.87767e-07
8.5419e-07
2.21465e-07
5.87663e-07
5.87764e-07
8.54279e-07
2.21466e-07
5.87663e-07
5.87762e-07
8.54125e-07
2.21466e-07
5.87664e-07
5.87764e-07
8.54114e-07
2.21466e-07
5.87668e-07
5.87762e-07
8.54256e-07
2.21466e-07
5.87663e-07
5.87764e-07
8.54175e-07
2.21467e-07
5.87662e-07
5.87767e-07
8.54134e-07
2.21467e-07
5.87665e-07
5.87763e-07
8.54192e-07
2.21467e-07
5.87668e-07
5.87765e-07
8.54281e-07
2.21467e-07
5.87665e-07
5.87766e-07
8.54335e-07
2.21467e-07
5.87663e-07
5.87763e-07
8.54325e-07
2.21466e-07
5.87667e-07
5.87764e-07
8.54289e-07
2.21467e-07
5.87665e-07
5.87764e-07
8.54244e-07
2.21466e-07
5.87664e-07
5.87763e-07
8.54203e-07
2.21466e-07
5.87664e-07
5.87763e-07
8.54197e-07
2.21466e-07
5.87663e-07
5.87763e-07
8.54209e-07
2.21465e-07
5.87662e-07
5.87762e-07
8.54199e-07
2.21465e-07
5.87663e-07
5.87759e-07
8.54185e-07
2.21464e-07
5.87663e-07
5.87761e-07
8.54196e-07
2.21464e-07
5.87661e-07
5.87761e-07
8.54216e-07
2.21464e-07
5.8766e-07
5.87758e-07
8.54221e-07
2.21464e-07
5.8766e-07
5.87757e-07
8.54219e-07
2.21464e-07
5.87659e-07
5.87757e-07
8.54234e-07
2.21464e-07
5.87657e-07
5.87756e-07
8.54246e-07
2.21463e-07
5.87656e-07
5.87754e-07
8.54227e-07
2.21463e-07
5.87658e-07
5.87755e-07
8.5421e-07
2.21463e-07
5.87658e-07
5.87758e-07
8.54219e-07
2.21463e-07
5.87659e-07
5.87757e-07
8.54235e-07
2.21463e-07
5.87661e-07
5.87759e-07
8.5423e-07
2.21463e-07
5.87663e-07
5.87761e-07
8.54212e-07
2.21463e-07
5.87667e-07
5.87763e-07
8.542e-07
2.21463e-07
5.87672e-07
5.87767e-07
8.5421e-07
2.21463e-07
5.87678e-07
5.87775e-07
8.54223e-07
2.21464e-07
5.87685e-07
5.87782e-07
8.54222e-07
2.21464e-07
5.87693e-07
5.8779e-07
8.54202e-07
2.21463e-07
5.87703e-07
5.878e-07
8.54188e-07
2.21465e-07
5.87719e-07
5.87815e-07
8.54192e-07
2.21461e-07
5.87731e-07
5.87826e-07
8.54158e-07
2.21133e-07
5.87538e-07
5.87626e-07
8.53828e-07
2.10519e-07
5.46987e-07
5.47003e-07
8.11521e-07
5.02462e-09
4.69809e-09
4.58459e-09
5.39483e-09
4.33445e-09
4.90069e-09
2.22749e-08
2.23366e-08
2.22083e-08
2.21011e-08
4.89459e-09
4.06857e-09
5.28394e-09
4.68789e-09
4.72935e-09
5.04795e-09
4.97101e-09
4.64985e-09
5.48743e-09
5.47921e-09
5.30006e-09
5.29253e-09
5.33726e-09
4.92638e-09
5.10603e-09
5.84147e-09
4.99414e-09
5.6493e-09
4.78953e-09
5.61887e-09
4.65837e-09
5.23088e-09
4.85798e-09
5.54574e-09
5.33366e-09
5.35331e-09
4.64538e-09
4.58639e-09
4.31983e-09
5.24331e-09
5.23391e-09
5.10353e-09
5.08232e-09
4.8509e-09
4.54059e-09
4.96431e-09
5.59292e-09
4.89046e-09
5.45558e-09
4.61766e-09
5.46768e-09
4.52285e-09
4.78791e-09
4.50176e-09
5.29584e-09
5.16209e-09
5.15404e-09
4.27738e-09
4.26581e-09
4.05443e-09
5.06497e-09
5.04003e-09
4.97794e-09
4.93294e-09
4.48003e-09
4.24339e-09
4.87314e-09
5.41955e-09
4.84872e-09
5.33617e-09
4.49773e-09
5.38581e-09
4.4491e-09
4.44377e-09
4.22737e-09
5.11386e-09
5.05554e-09
5.01877e-09
3.95444e-09
4.00967e-09
3.84095e-09
4.95757e-09
4.90459e-09
4.91783e-09
4.85135e-09
4.19151e-09
3.99581e-09
4.84957e-09
5.31763e-09
4.87101e-09
5.27139e-09
4.44031e-09
5.34913e-09
4.44144e-09
4.18093e-09
4.02521e-09
4.99588e-09
5.0138e-09
4.95069e-09
3.702e-09
3.80081e-09
3.66193e-09
4.91023e-09
4.83552e-09
4.91393e-09
4.81717e-09
3.94992e-09
3.77771e-09
4.88712e-09
5.26844e-09
4.95688e-09
5.27903e-09
4.44731e-09
5.38324e-09
4.48721e-09
3.9879e-09
3.87145e-09
4.94738e-09
5.03703e-09
4.95639e-09
3.50968e-09
3.62716e-09
3.512e-09
4.92085e-09
4.81912e-09
4.97804e-09
4.84585e-09
3.73528e-09
3.58335e-09
4.98739e-09
5.29416e-09
5.09918e-09
5.36833e-09
4.50708e-09
5.4956e-09
4.59521e-09
3.83861e-09
3.72706e-09
4.96849e-09
5.12606e-09
5.02716e-09
3.34439e-09
3.48355e-09
3.39639e-09
5.00623e-09
4.86728e-09
5.11593e-09
4.98127e-09
3.54633e-09
3.43693e-09
5.14486e-09
5.40048e-09
5.30914e-09
5.52353e-09
4.63392e-09
5.69808e-09
4.77983e-09
3.69776e-09
3.60653e-09
5.05423e-09
5.28002e-09
5.16618e-09
3.20226e-09
3.37457e-09
3.33536e-09
5.16125e-09
5.03349e-09
5.32188e-09
5.22045e-09
3.41228e-09
3.35844e-09
5.37462e-09
5.57167e-09
5.60741e-09
5.74437e-09
4.83797e-09
5.97934e-09
5.03995e-09
3.58571e-09
3.55155e-09
5.21279e-09
5.50819e-09
5.37963e-09
3.11897e-09
3.32582e-09
3.33451e-09
5.38368e-09
5.29672e-09
5.60068e-09
5.55443e-09
3.34628e-09
3.34627e-09
5.69587e-09
5.81301e-09
5.98687e-09
6.03993e-09
5.11898e-09
6.33235e-09
5.37886e-09
3.54293e-09
3.55655e-09
5.44621e-09
5.8111e-09
5.6732e-09
3.10518e-09
3.33135e-09
3.39745e-09
5.68191e-09
5.65257e-09
5.95801e-09
5.97927e-09
3.34134e-09
3.39534e-09
6.09652e-09
6.12593e-09
6.45541e-09
6.3969e-09
5.47716e-09
6.77054e-09
5.80153e-09
3.55486e-09
3.60563e-09
5.75891e-09
6.17793e-09
6.03788e-09
3.161e-09
3.40675e-09
3.52657e-09
6.06116e-09
6.10112e-09
6.40406e-09
6.50103e-09
3.40191e-09
3.50222e-09
6.58386e-09
6.49591e-09
6.99759e-09
6.82369e-09
5.91952e-09
7.30682e-09
6.31148e-09
3.61182e-09
3.69351e-09
6.13976e-09
6.62279e-09
6.47723e-09
3.28803e-09
3.54825e-09
3.72352e-09
6.5266e-09
6.64571e-09
6.94217e-09
7.1229e-09
3.51814e-09
3.67754e-09
7.14379e-09
6.93958e-09
7.61232e-09
7.32074e-09
6.4519e-09
7.95394e-09
6.90901e-09
3.70575e-09
3.81227e-09
6.59989e-09
7.12905e-09
6.99116e-09
3.48756e-09
3.75958e-09
3.99019e-09
7.0933e-09
7.29574e-09
7.58592e-09
7.85424e-09
3.71021e-09
3.95349e-09
7.78365e-09
7.46095e-09
8.34859e-09
7.91821e-09
7.07558e-09
8.73653e-09
7.60842e-09
3.83577e-09
4.00613e-09
7.13196e-09
7.64984e-09
7.59346e-09
3.76182e-09
4.04477e-09
4.36261e-09
7.76464e-09
8.05802e-09
8.36174e-09
8.72366e-09
4.01037e-09
4.36831e-09
8.55236e-09
8.08865e-09
9.2275e-09
8.64938e-09
7.80258e-09
9.67264e-09
8.42795e-09
4.05336e-09
4.29077e-09
7.76304e-09
8.34317e-09
8.33465e-09
4.12701e-09
4.44934e-09
4.90069e-09
8.57961e-09
8.96578e-09
9.33635e-09
9.76792e-09
4.46139e-09
4.97312e-09
9.46889e-09
8.85528e-09
1.02827e-08
9.56221e-09
8.65298e-09
1.07948e-08
9.40856e-09
4.35463e-09
4.66352e-09
8.5481e-09
9.29896e-09
9.27538e-09
4.64981e-09
5.03935e-09
5.73027e-09
9.62005e-09
1.00598e-08
1.05681e-08
1.10134e-08
5.1216e-09
5.8633e-09
1.05887e-08
9.82791e-09
1.16013e-08
1.07301e-08
9.68856e-09
1.21267e-08
1.06179e-08
4.77621e-09
5.36404e-09
9.54864e-09
1.05048e-08
1.04741e-08
5.4614e-09
5.9625e-09
7.05354e-09
1.09289e-08
1.13716e-08
1.21616e-08
1.25848e-08
6.0981e-09
7.22503e-09
1.19851e-08
1.10769e-08
1.32977e-08
1.22422e-08
1.09668e-08
1.38373e-08
1.21695e-08
5.57748e-09
6.57375e-09
1.08234e-08
1.2043e-08
1.20226e-08
6.74908e-09
7.43267e-09
9.17283e-09
1.26298e-08
1.30528e-08
1.42813e-08
1.46715e-08
7.61113e-09
9.33147e-09
1.37883e-08
1.26961e-08
1.55175e-08
1.42805e-08
1.26313e-08
1.59036e-08
1.42345e-08
6.93548e-09
8.60225e-09
1.24844e-08
1.40675e-08
1.40812e-08
8.81664e-09
9.80565e-09
1.27379e-08
1.49082e-08
1.52877e-08
1.71489e-08
1.74852e-08
9.95926e-09
1.26668e-08
1.62121e-08
1.4869e-08
1.85825e-08
1.69966e-08
1.48493e-08
1.85438e-08
1.7003e-08
9.20108e-09
1.19905e-08
1.46917e-08
1.6814e-08
1.68448e-08
1.22208e-08
1.37727e-08
1.87296e-08
1.80153e-08
1.83566e-08
2.10198e-08
2.14549e-08
1.36159e-08
1.80396e-08
1.94649e-08
1.78616e-08
2.27139e-08
2.07833e-08
1.78379e-08
2.17343e-08
2.0799e-08
1.30197e-08
1.76864e-08
1.76884e-08
2.05919e-08
2.06854e-08
1.79329e-08
2.04337e-08
2.81602e-08
2.21789e-08
2.26996e-08
2.62857e-08
2.71242e-08
1.96542e-08
2.75474e-08
2.39771e-08
2.19034e-08
2.79179e-08
2.60053e-08
2.19606e-08
2.64548e-08
2.60898e-08
1.92987e-08
2.70612e-08
2.18538e-08
2.58466e-08
2.60145e-08
2.73715e-08
3.06747e-08
4.30514e-08
2.79056e-08
2.88259e-08
3.37652e-08
3.48486e-08
3.01525e-08
4.26605e-08
2.93345e-08
2.76467e-08
3.42992e-08
3.3355e-08
2.76974e-08
3.32723e-08
3.33713e-08
2.96608e-08
4.21568e-08
2.7643e-08
3.31092e-08
3.33558e-08
4.22828e-08
4.71162e-08
6.70291e-08
3.60609e-08
3.72342e-08
4.40009e-08
4.53513e-08
4.66724e-08
6.58308e-08
3.62283e-08
3.55274e-08
4.31017e-08
4.30353e-08
3.55868e-08
4.25073e-08
4.32394e-08
4.61004e-08
6.50411e-08
3.55835e-08
4.28552e-08
4.32984e-08
6.51934e-08
7.29774e-08
1.01585e-07
4.70472e-08
4.83307e-08
5.74449e-08
5.80282e-08
7.14915e-08
9.8391e-08
4.58527e-08
4.59169e-08
5.56142e-08
5.585e-08
4.62203e-08
5.50106e-08
5.67393e-08
7.08073e-08
9.89944e-08
4.62862e-08
5.60546e-08
5.68262e-08
9.92009e-08
1.09746e-07
1.48734e-07
6.13188e-08
6.14999e-08
7.4445e-08
7.29908e-08
1.0622e-07
1.44398e-07
5.93424e-08
5.95925e-08
7.2125e-08
7.22136e-08
6.0668e-08
7.22519e-08
7.38129e-08
1.071e-07
1.45994e-07
6.07755e-08
7.28665e-08
7.39317e-08
1.46385e-07
1.59471e-07
2.09079e-07
7.93452e-08
7.73633e-08
9.55332e-08
9.25274e-08
1.55017e-07
2.04792e-07
7.69769e-08
7.69651e-08
9.3147e-08
9.29966e-08
7.8842e-08
9.34388e-08
9.57413e-08
1.56634e-07
2.06296e-07
7.89284e-08
9.38443e-08
9.57472e-08
2.07774e-07
2.21916e-07
2.77807e-07
1.01411e-07
9.81633e-08
1.20595e-07
1.16457e-07
2.17768e-07
2.74518e-07
9.89539e-08
9.87936e-08
1.1732e-07
1.1718e-07
1.01663e-07
1.1777e-07
1.19556e-07
2.19293e-07
2.7589e-07
1.0173e-07
1.18604e-07
1.20267e-07
2.75639e-07
2.91737e-07
3.48946e-07
1.27466e-07
1.23027e-07
1.48872e-07
1.44173e-07
2.88567e-07
3.46676e-07
1.23776e-07
1.23726e-07
1.44192e-07
1.44813e-07
1.2566e-07
1.44909e-07
1.4528e-07
2.89887e-07
3.48416e-07
1.26683e-07
1.46459e-07
1.46962e-07
3.44714e-07
3.62866e-07
4.1771e-07
1.5616e-07
1.51653e-07
1.7886e-07
1.75542e-07
3.60926e-07
4.17514e-07
1.51402e-07
1.52296e-07
1.7477e-07
1.76165e-07
1.52416e-07
1.75661e-07
1.75871e-07
3.6276e-07
4.189e-07
1.54134e-07
1.76973e-07
1.7727e-07
4.17019e-07
4.31682e-07
4.86489e-07
1.87001e-07
1.84131e-07
2.14728e-07
2.12967e-07
4.31742e-07
4.86745e-07
1.83336e-07
1.84735e-07
2.1232e-07
2.13413e-07
1.84439e-07
2.13023e-07
2.13248e-07
4.3285e-07
4.8672e-07
1.85671e-07
2.13622e-07
2.1403e-07
4.87208e-07
5.00655e-07
5.54172e-07
2.25364e-07
2.23849e-07
2.62138e-07
2.61192e-07
5.00847e-07
5.53994e-07
2.23294e-07
2.24253e-07
2.60814e-07
2.61455e-07
2.24124e-07
2.61159e-07
2.61333e-07
5.00707e-07
5.53972e-07
2.24783e-07
2.61578e-07
2.61681e-07
5.54511e-07
5.68108e-07
6.21915e-07
2.7617e-07
2.75373e-07
3.24006e-07
3.23599e-07
5.67901e-07
6.21683e-07
2.75046e-07
2.7561e-07
3.23357e-07
3.23785e-07
2.75463e-07
3.23409e-07
3.23575e-07
5.67918e-07
6.21902e-07
2.75726e-07
3.23762e-07
3.23633e-07
6.21939e-07
6.36405e-07
6.9226e-07
3.4168e-07
3.41376e-07
3.97424e-07
3.97342e-07
6.36189e-07
6.9212e-07
3.41153e-07
3.41553e-07
3.97132e-07
3.97474e-07
3.41336e-07
3.97094e-07
3.97293e-07
6.36405e-07
6.92354e-07
3.41346e-07
3.97312e-07
3.97214e-07
6.92305e-07
7.064e-07
7.55666e-07
4.16115e-07
4.1608e-07
4.69183e-07
4.69222e-07
7.06279e-07
7.55568e-07
4.15874e-07
4.16194e-07
4.69021e-07
4.69292e-07
4.16033e-07
4.6896e-07
4.69198e-07
7.06488e-07
7.55754e-07
4.15939e-07
4.69103e-07
4.69077e-07
7.55749e-07
7.67582e-07
8.03882e-07
4.85242e-07
4.85291e-07
5.26778e-07
5.26837e-07
7.67491e-07
8.03786e-07
4.85099e-07
4.85353e-07
5.26661e-07
5.26885e-07
4.85275e-07
5.26594e-07
5.26836e-07
7.67657e-07
8.03954e-07
4.85152e-07
5.26711e-07
5.26718e-07
8.03971e-07
8.12766e-07
8.33817e-07
5.38119e-07
5.38179e-07
5.63648e-07
5.63709e-07
8.12675e-07
8.33728e-07
5.38012e-07
5.38226e-07
5.63548e-07
5.63747e-07
5.3818e-07
5.63476e-07
5.63715e-07
8.12826e-07
8.33874e-07
5.38065e-07
5.63586e-07
5.63605e-07
8.33902e-07
8.39311e-07
8.46459e-07
5.6937e-07
5.69432e-07
5.80101e-07
5.80164e-07
8.39228e-07
8.46372e-07
5.69276e-07
5.69468e-07
5.8001e-07
5.80194e-07
5.69439e-07
5.79937e-07
5.80173e-07
8.39361e-07
8.46514e-07
5.69331e-07
5.80047e-07
5.80067e-07
8.46548e-07
8.49477e-07
8.50514e-07
5.82154e-07
5.82217e-07
5.85716e-07
5.85779e-07
8.49395e-07
8.5043e-07
5.82068e-07
5.82247e-07
5.85631e-07
5.85808e-07
5.82226e-07
5.8556e-07
5.85787e-07
8.49524e-07
8.50564e-07
5.82122e-07
5.85664e-07
5.85685e-07
8.50597e-07
8.52806e-07
8.51858e-07
5.8634e-07
5.86402e-07
5.87344e-07
5.87406e-07
8.52727e-07
8.51774e-07
5.86256e-07
5.86431e-07
5.8726e-07
5.87437e-07
5.86409e-07
5.87192e-07
5.87413e-07
8.52848e-07
8.51906e-07
5.8631e-07
5.87292e-07
5.87311e-07
8.5194e-07
8.53883e-07
8.52174e-07
5.87512e-07
5.87574e-07
5.87768e-07
5.87833e-07
8.53802e-07
8.52093e-07
5.87428e-07
5.87602e-07
5.87684e-07
5.87862e-07
5.87578e-07
5.87618e-07
5.87838e-07
8.53923e-07
8.52217e-07
5.87483e-07
5.87718e-07
5.8774e-07
8.52251e-07
8.54204e-07
8.52149e-07
5.87796e-07
5.8786e-07
5.8781e-07
5.87872e-07
8.54133e-07
8.5207e-07
5.87719e-07
5.87892e-07
5.87733e-07
5.87905e-07
5.87867e-07
5.87659e-07
5.8788e-07
8.54245e-07
8.52194e-07
5.87769e-07
5.87761e-07
5.87782e-07
8.52228e-07
8.54106e-07
8.52035e-07
5.87801e-07
5.87863e-07
5.87792e-07
5.87854e-07
8.54031e-07
8.51952e-07
5.87725e-07
5.87896e-07
5.87716e-07
5.87888e-07
5.87872e-07
5.87641e-07
5.87864e-07
8.5415e-07
8.52075e-07
5.87774e-07
5.87745e-07
5.87766e-07
8.52109e-07
8.54027e-07
8.522e-07
5.87792e-07
5.87854e-07
5.87816e-07
5.87878e-07
8.53948e-07
8.52122e-07
5.87716e-07
5.87888e-07
5.87743e-07
5.87914e-07
5.87863e-07
5.87666e-07
5.87889e-07
8.54066e-07
8.52247e-07
5.87765e-07
5.8777e-07
5.87792e-07
8.52283e-07
8.54206e-07
8.52047e-07
5.87817e-07
5.87879e-07
5.87802e-07
5.87863e-07
8.54132e-07
8.51957e-07
5.87744e-07
5.87914e-07
5.87727e-07
5.87898e-07
5.87889e-07
5.8765e-07
5.87874e-07
8.54249e-07
8.52079e-07
5.87792e-07
5.87754e-07
5.87776e-07
8.52112e-07
8.53998e-07
8.52221e-07
5.87799e-07
5.87859e-07
5.87809e-07
5.87869e-07
8.53915e-07
8.52144e-07
5.87723e-07
5.87895e-07
5.87732e-07
5.87904e-07
5.87871e-07
5.87657e-07
5.8788e-07
8.54034e-07
8.52267e-07
5.87773e-07
5.87761e-07
5.87783e-07
8.52303e-07
8.5424e-07
8.52001e-07
5.87808e-07
5.87867e-07
5.87809e-07
5.87868e-07
8.54162e-07
8.5192e-07
5.87732e-07
5.87903e-07
5.87732e-07
5.87904e-07
5.87878e-07
5.87656e-07
5.87878e-07
8.54276e-07
8.52049e-07
5.87781e-07
5.87759e-07
5.87782e-07
8.5208e-07
8.53993e-07
8.52211e-07
5.87808e-07
5.87867e-07
5.87811e-07
5.87868e-07
8.53925e-07
8.52098e-07
5.8773e-07
5.87902e-07
5.87731e-07
5.87903e-07
5.87878e-07
5.87657e-07
5.87879e-07
8.54052e-07
8.52202e-07
5.8778e-07
5.8776e-07
5.87782e-07
8.52251e-07
8.54144e-07
8.52174e-07
5.8781e-07
5.87866e-07
5.87816e-07
5.87872e-07
8.54035e-07
8.5211e-07
5.8773e-07
5.87902e-07
5.87734e-07
5.87908e-07
5.87877e-07
5.87662e-07
5.87885e-07
8.54135e-07
8.52231e-07
5.87781e-07
5.87765e-07
5.87787e-07
8.52272e-07
8.54196e-07
8.5207e-07
5.87815e-07
5.87869e-07
5.87816e-07
5.87872e-07
8.54107e-07
8.52062e-07
5.87732e-07
5.87905e-07
5.87733e-07
5.87909e-07
5.8788e-07
5.8766e-07
5.87882e-07
8.54206e-07
8.52208e-07
5.87784e-07
5.87762e-07
5.87784e-07
8.52192e-07
8.54107e-07
8.52058e-07
5.87816e-07
5.87872e-07
5.87819e-07
5.87871e-07
8.54102e-07
8.5198e-07
5.87733e-07
5.87908e-07
5.87733e-07
5.87909e-07
5.87882e-07
5.87657e-07
5.8788e-07
8.54221e-07
8.52153e-07
5.87785e-07
5.87761e-07
5.87783e-07
8.52124e-07
8.54039e-07
8.52149e-07
5.87819e-07
5.87871e-07
5.87821e-07
5.87871e-07
8.54019e-07
8.51988e-07
5.87732e-07
5.87908e-07
5.87734e-07
5.87908e-07
5.87879e-07
5.87662e-07
5.87884e-07
8.54177e-07
8.52138e-07
5.87782e-07
5.87764e-07
5.87787e-07
8.52172e-07
8.541e-07
8.5218e-07
5.8782e-07
5.87871e-07
5.87825e-07
5.87872e-07
8.53978e-07
8.5203e-07
5.87734e-07
5.87908e-07
5.87734e-07
5.87907e-07
5.87882e-07
5.87663e-07
5.87884e-07
8.54153e-07
8.52123e-07
5.87785e-07
5.87764e-07
5.87786e-07
8.52209e-07
8.54149e-07
8.52171e-07
5.87822e-07
5.8787e-07
5.87827e-07
5.87874e-07
8.53996e-07
8.52046e-07
5.87732e-07
5.87906e-07
5.87737e-07
5.87911e-07
5.87883e-07
5.87662e-07
5.87885e-07
8.5414e-07
8.52102e-07
5.87785e-07
5.87762e-07
5.87786e-07
8.52236e-07
8.54164e-07
8.52152e-07
5.87825e-07
5.8787e-07
5.87827e-07
5.87876e-07
8.53999e-07
8.52099e-07
5.87733e-07
5.87908e-07
5.87735e-07
5.87911e-07
5.87881e-07
5.87666e-07
5.87887e-07
8.54099e-07
8.52142e-07
5.87784e-07
5.87766e-07
5.87787e-07
8.522e-07
8.54153e-07
8.52159e-07
5.87826e-07
5.87872e-07
5.87827e-07
5.87875e-07
8.54041e-07
8.52127e-07
5.87735e-07
5.87909e-07
5.87733e-07
5.87909e-07
5.87884e-07
5.87665e-07
5.87885e-07
8.54106e-07
8.52164e-07
5.87784e-07
5.87766e-07
5.87789e-07
8.52258e-07
8.54173e-07
8.52111e-07
5.87827e-07
5.87874e-07
5.87827e-07
5.87872e-07
8.54115e-07
8.52051e-07
5.87733e-07
5.87909e-07
5.87732e-07
5.87907e-07
5.87884e-07
5.87661e-07
5.87883e-07
8.54142e-07
8.52128e-07
5.87785e-07
5.87762e-07
5.87783e-07
8.52257e-07
8.54151e-07
8.52043e-07
5.87827e-07
5.87872e-07
5.87826e-07
5.87873e-07
8.54058e-07
8.52079e-07
5.87732e-07
5.87907e-07
5.87731e-07
5.87909e-07
5.87883e-07
5.87664e-07
5.87885e-07
8.54119e-07
8.52156e-07
5.87784e-07
5.87762e-07
5.87781e-07
8.52109e-07
8.54052e-07
8.52128e-07
5.87825e-07
5.87871e-07
5.87832e-07
5.87874e-07
8.54048e-07
8.52077e-07
5.8773e-07
5.87907e-07
5.87736e-07
5.87908e-07
5.87883e-07
5.87666e-07
5.87885e-07
8.54144e-07
8.52102e-07
5.8778e-07
5.87763e-07
5.87785e-07
8.52183e-07
8.54115e-07
8.52059e-07
5.87828e-07
5.87871e-07
5.87829e-07
5.87874e-07
8.54056e-07
8.52067e-07
5.87734e-07
5.87907e-07
5.87733e-07
5.8791e-07
5.87883e-07
5.87666e-07
5.87885e-07
8.54125e-07
8.52072e-07
5.8778e-07
5.87763e-07
5.87785e-07
8.52281e-07
8.54075e-07
8.52137e-07
5.87828e-07
5.87872e-07
5.8783e-07
5.87872e-07
8.54048e-07
8.52071e-07
5.87733e-07
5.87908e-07
5.87734e-07
5.87911e-07
5.87885e-07
5.87661e-07
5.87882e-07
8.5405e-07
8.52185e-07
5.87784e-07
5.87767e-07
5.87782e-07
8.52169e-07
8.54082e-07
8.52212e-07
5.87828e-07
5.87871e-07
5.8783e-07
5.87872e-07
8.54025e-07
8.52097e-07
5.87733e-07
5.87909e-07
5.87733e-07
5.8791e-07
5.87882e-07
5.87665e-07
5.87883e-07
8.54116e-07
8.52249e-07
5.87782e-07
5.87764e-07
5.87782e-07
8.52176e-07
8.54181e-07
8.52173e-07
5.87829e-07
5.87871e-07
5.87831e-07
5.87873e-07
8.5407e-07
8.52089e-07
5.87733e-07
5.8791e-07
5.87732e-07
5.87908e-07
5.87881e-07
5.87667e-07
5.87886e-07
8.54212e-07
8.52202e-07
5.87782e-07
5.87762e-07
5.8778e-07
8.52256e-07
8.5418e-07
8.52131e-07
5.87829e-07
5.87871e-07
5.87832e-07
5.87873e-07
8.541e-07
8.52034e-07
5.87731e-07
5.87908e-07
5.87734e-07
5.87908e-07
5.87882e-07
5.87665e-07
5.87887e-07
8.54224e-07
8.52108e-07
5.87779e-07
5.87764e-07
5.87785e-07
8.52315e-07
8.54156e-07
8.52095e-07
5.87832e-07
5.87873e-07
5.87831e-07
5.8787e-07
8.54084e-07
8.5192e-07
5.87732e-07
5.87908e-07
5.87733e-07
5.87909e-07
5.87884e-07
5.87662e-07
5.87886e-07
8.54145e-07
8.52085e-07
5.8778e-07
5.87763e-07
5.87784e-07
8.52308e-07
8.5412e-07
8.52065e-07
5.8783e-07
5.87869e-07
5.87833e-07
5.87875e-07
8.5394e-07
8.52023e-07
5.87733e-07
5.87908e-07
5.87731e-07
5.8791e-07
5.87885e-07
5.87663e-07
5.87885e-07
8.54069e-07
8.52164e-07
5.87783e-07
5.87761e-07
5.87782e-07
8.52247e-07
8.54076e-07
8.52063e-07
5.87832e-07
5.8787e-07
5.87832e-07
5.87875e-07
8.53953e-07
8.52108e-07
5.87731e-07
5.87909e-07
5.87729e-07
5.87909e-07
5.87885e-07
5.87664e-07
5.87883e-07
8.54129e-07
8.52143e-07
5.87782e-07
5.87762e-07
5.87782e-07
8.52188e-07
8.54021e-07
8.52186e-07
5.87832e-07
5.87875e-07
5.87833e-07
5.8787e-07
8.54079e-07
8.52025e-07
5.87729e-07
5.87909e-07
5.87733e-07
5.87908e-07
5.87883e-07
5.87662e-07
5.87884e-07
8.54124e-07
8.52136e-07
5.87782e-07
5.87762e-07
5.87782e-07
8.52138e-07
8.54124e-07
8.52159e-07
5.87833e-07
5.8787e-07
5.87833e-07
5.87872e-07
8.54024e-07
8.52012e-07
5.87732e-07
5.87908e-07
5.87731e-07
5.87908e-07
5.87884e-07
5.87661e-07
5.87885e-07
8.54136e-07
8.52126e-07
5.87782e-07
5.8776e-07
5.87781e-07
8.52111e-07
8.54146e-07
8.52134e-07
5.87832e-07
5.87871e-07
5.87834e-07
5.87874e-07
8.54011e-07
8.52009e-07
5.87731e-07
5.87907e-07
5.87731e-07
5.87908e-07
5.87885e-07
5.87661e-07
5.87884e-07
8.54129e-07
8.52125e-07
5.87782e-07
5.87761e-07
5.8778e-07
8.52117e-07
8.54118e-07
8.52109e-07
5.87834e-07
5.87874e-07
5.87834e-07
5.87873e-07
8.54012e-07
8.51995e-07
5.87731e-07
5.87908e-07
5.8773e-07
5.87908e-07
5.87885e-07
5.8766e-07
5.87881e-07
8.54112e-07
8.52124e-07
5.87781e-07
5.8776e-07
5.8778e-07
8.52123e-07
8.54076e-07
8.52111e-07
5.87834e-07
5.87873e-07
5.87834e-07
5.87872e-07
8.53993e-07
8.51992e-07
5.8773e-07
5.87907e-07
5.8773e-07
5.87907e-07
5.87882e-07
5.8766e-07
5.87884e-07
8.541e-07
8.52124e-07
5.87781e-07
5.87759e-07
5.87779e-07
8.52105e-07
8.54052e-07
8.52173e-07
5.87834e-07
5.87872e-07
5.87834e-07
5.87872e-07
8.53968e-07
8.52018e-07
5.87727e-07
5.87906e-07
5.87733e-07
5.8791e-07
5.87884e-07
5.87661e-07
5.87885e-07
8.54084e-07
8.52147e-07
5.8778e-07
5.87757e-07
5.87779e-07
8.52098e-07
8.54108e-07
8.52167e-07
5.87835e-07
5.87872e-07
5.87831e-07
5.87872e-07
8.53975e-07
8.52031e-07
5.87731e-07
5.87909e-07
5.8773e-07
5.87909e-07
5.87885e-07
5.8766e-07
5.87885e-07
8.54088e-07
8.52165e-07
5.87779e-07
5.87759e-07
5.87781e-07
8.52112e-07
8.54124e-07
8.52123e-07
5.87832e-07
5.87872e-07
5.87831e-07
5.87871e-07
8.53987e-07
8.52036e-07
5.87731e-07
5.87909e-07
5.87728e-07
5.87907e-07
5.87885e-07
5.87659e-07
5.87884e-07
8.54108e-07
8.52148e-07
5.87781e-07
5.87757e-07
5.87781e-07
8.52123e-07
8.5408e-07
8.52141e-07
5.87831e-07
5.87871e-07
5.87832e-07
5.87871e-07
8.53986e-07
8.52066e-07
5.87729e-07
5.87907e-07
5.87729e-07
5.87909e-07
5.87886e-07
5.87657e-07
5.87882e-07
8.54096e-07
8.52155e-07
5.87783e-07
5.87754e-07
5.87779e-07
8.5212e-07
8.54083e-07
8.52173e-07
5.87832e-07
5.87871e-07
5.87831e-07
5.8787e-07
8.54006e-07
8.52094e-07
5.87729e-07
5.87909e-07
5.87728e-07
5.87907e-07
5.87884e-07
5.87656e-07
5.8788e-07
8.5409e-07
8.52189e-07
5.87783e-07
5.87753e-07
5.87777e-07
8.52121e-07
8.54118e-07
8.5217e-07
5.87832e-07
5.8787e-07
5.87828e-07
5.87867e-07
8.54044e-07
8.52077e-07
5.87728e-07
5.87908e-07
5.87724e-07
5.87903e-07
5.87883e-07
5.87653e-07
5.87879e-07
8.5412e-07
8.52191e-07
5.87781e-07
5.87751e-07
5.87774e-07
8.52135e-07
8.54128e-07
8.52148e-07
5.8783e-07
5.87869e-07
5.87825e-07
5.87864e-07
8.54046e-07
8.52046e-07
5.87727e-07
5.87906e-07
5.87721e-07
5.879e-07
5.87882e-07
5.8765e-07
5.87876e-07
8.54136e-07
8.5216e-07
5.87778e-07
5.87748e-07
5.87771e-07
8.52138e-07
8.54109e-07
8.5213e-07
5.87828e-07
5.87867e-07
5.87822e-07
5.87861e-07
8.54005e-07
8.52058e-07
5.87725e-07
5.87904e-07
5.87719e-07
5.87898e-07
5.8788e-07
5.87649e-07
5.87873e-07
8.54107e-07
8.52162e-07
5.87776e-07
5.87745e-07
5.87769e-07
8.52118e-07
8.54076e-07
8.52136e-07
5.87826e-07
5.87865e-07
5.87821e-07
5.87859e-07
8.53999e-07
8.52072e-07
5.87723e-07
5.87902e-07
5.87717e-07
5.87896e-07
5.87878e-07
5.87647e-07
5.8787e-07
8.54096e-07
8.52196e-07
5.87774e-07
5.87746e-07
5.87767e-07
8.52109e-07
8.54068e-07
8.52152e-07
5.87826e-07
5.87864e-07
5.87819e-07
5.87857e-07
8.54019e-07
8.52061e-07
5.87723e-07
5.87902e-07
5.87714e-07
5.87893e-07
5.87877e-07
5.87644e-07
5.87867e-07
8.54124e-07
8.52209e-07
5.87773e-07
5.87743e-07
5.87764e-07
8.52121e-07
8.54089e-07
8.5214e-07
5.87828e-07
5.87866e-07
5.87814e-07
5.87853e-07
8.54015e-07
8.52055e-07
5.87724e-07
5.87902e-07
5.87711e-07
5.8789e-07
5.87877e-07
5.87642e-07
5.87864e-07
8.54151e-07
8.52193e-07
5.87774e-07
5.87738e-07
5.8776e-07
8.52131e-07
8.54096e-07
8.52115e-07
5.87827e-07
5.87866e-07
5.87811e-07
5.87849e-07
8.5401e-07
8.52051e-07
5.87724e-07
5.87903e-07
5.87708e-07
5.87887e-07
5.87878e-07
5.87639e-07
5.87861e-07
8.54149e-07
8.52181e-07
5.87775e-07
5.87736e-07
5.87756e-07
8.52124e-07
8.54071e-07
8.5214e-07
5.87827e-07
5.87866e-07
5.8781e-07
5.87848e-07
8.54005e-07
8.52056e-07
5.87725e-07
5.87904e-07
5.87705e-07
5.87884e-07
5.8788e-07
5.87636e-07
5.87858e-07
8.54144e-07
8.52159e-07
5.87776e-07
5.87733e-07
5.87753e-07
8.52106e-07
8.5408e-07
8.52169e-07
5.87832e-07
5.8787e-07
5.87803e-07
5.87842e-07
8.54009e-07
8.52045e-07
5.87727e-07
5.87907e-07
5.87702e-07
5.8788e-07
5.87882e-07
5.87633e-07
5.87854e-07
8.54127e-07
8.52126e-07
5.87778e-07
5.87729e-07
5.87749e-07
8.52099e-07
8.54119e-07
8.52153e-07
5.87835e-07
5.87872e-07
5.878e-07
5.87838e-07
8.54e-07
8.52034e-07
5.87732e-07
5.8791e-07
5.87697e-07
5.87875e-07
5.87885e-07
5.87628e-07
5.8785e-07
8.54079e-07
8.5215e-07
5.8778e-07
5.87725e-07
5.87745e-07
8.52108e-07
8.54117e-07
8.5214e-07
5.87839e-07
5.87876e-07
5.87795e-07
5.87833e-07
8.53988e-07
8.52042e-07
5.87736e-07
5.87914e-07
5.87691e-07
5.8787e-07
5.8789e-07
5.87623e-07
5.87844e-07
8.54079e-07
8.52187e-07
5.87784e-07
5.87721e-07
5.87739e-07
8.52115e-07
8.54099e-07
8.52135e-07
5.87846e-07
5.87883e-07
5.87786e-07
5.87826e-07
8.53995e-07
8.52053e-07
5.87742e-07
5.8792e-07
5.87685e-07
5.87863e-07
5.87895e-07
5.87617e-07
5.87838e-07
8.5412e-07
8.52176e-07
5.8779e-07
5.87712e-07
5.87732e-07
8.52109e-07
8.5409e-07
8.52113e-07
5.87852e-07
5.8789e-07
5.87778e-07
5.87817e-07
8.54009e-07
8.52048e-07
5.87749e-07
5.87927e-07
5.87676e-07
5.87854e-07
5.87903e-07
5.87607e-07
5.87829e-07
8.54127e-07
8.52143e-07
5.87797e-07
5.87703e-07
5.87722e-07
8.5209e-07
8.54074e-07
8.52096e-07
5.87859e-07
5.87899e-07
5.87767e-07
5.87806e-07
8.54009e-07
8.52042e-07
5.87758e-07
5.87935e-07
5.87664e-07
5.87842e-07
5.87911e-07
5.87595e-07
5.87817e-07
8.54092e-07
8.52151e-07
5.87805e-07
5.87691e-07
5.8771e-07
8.52087e-07
8.54053e-07
8.52116e-07
5.8787e-07
5.87909e-07
5.87754e-07
5.87792e-07
8.54004e-07
8.52033e-07
5.87767e-07
5.87945e-07
5.87651e-07
5.87829e-07
5.87921e-07
5.87582e-07
5.87803e-07
8.54091e-07
8.5217e-07
5.87814e-07
5.87678e-07
5.87697e-07
8.521e-07
8.54059e-07
8.52134e-07
5.87885e-07
5.87924e-07
5.87736e-07
5.87772e-07
8.53993e-07
8.52028e-07
5.87782e-07
5.87961e-07
5.87634e-07
5.87812e-07
5.87936e-07
5.87562e-07
5.87782e-07
8.54121e-07
8.52159e-07
5.87829e-07
5.8766e-07
5.87674e-07
8.52095e-07
8.54067e-07
8.51939e-07
5.879e-07
5.87933e-07
5.87377e-07
5.87412e-07
8.53974e-07
8.51848e-07
5.87796e-07
5.87972e-07
5.87271e-07
5.87445e-07
5.87946e-07
5.87209e-07
5.87425e-07
8.54099e-07
8.51961e-07
5.87836e-07
5.87293e-07
5.87306e-07
8.51899e-07
8.53762e-07
8.33293e-07
5.8771e-07
5.87742e-07
5.68901e-07
5.68933e-07
8.53678e-07
8.33243e-07
5.87601e-07
5.87782e-07
5.68856e-07
5.68909e-07
5.87761e-07
5.68833e-07
5.68929e-07
8.53776e-07
8.33308e-07
5.87637e-07
5.68857e-07
5.68872e-07
8.33335e-07
8.11466e-07
5.47023e-07
5.47052e-07
8.11436e-07
5.46995e-07
5.47026e-07
2.1052e-07
2.10508e-07
2.10522e-07
5.47048e-07
8.11482e-07
5.47014e-07
5.5354e-08
9.12812e-09
3.75123e-08
3.76068e-08
1.6177e-09
4.91009e-09
1.13492e-08
2.25025e-08
1.40534e-09
4.69194e-09
2.22043e-08
1.03752e-08
5.21126e-09
7.61321e-09
3.71267e-09
7.29775e-09
1.64131e-07
5.40278e-09
2.54149e-07
1.56446e-06
3.09196e-06
7.209e-09
1.64887e-07
5.48096e-09
2.53847e-07
2.17547e-08
2.16301e-08
2.15111e-08
2.15578e-08
2.16262e-08
2.14964e-08
2.13763e-08
1.59366e-09
8.61428e-08
1.01323e-08
5.72156e-09
1.59803e-09
6.43342e-08
1.00444e-08
1.64652e-06
3.21735e-06
1.39465e-09
9.86744e-09
8.40394e-08
5.44124e-09
1.3934e-09
9.77782e-09
6.26809e-08
2.02959e-07
2.15016e-07
4.84155e-09
1.76092e-07
1.83382e-07
1.58844e-08
4.54857e-07
1.24624e-08
6.61575e-07
7.03894e-06
9.92678e-06
1.5645e-08
4.64326e-07
1.23143e-08
6.58026e-07
2.17504e-08
2.16177e-08
2.15018e-08