/*--------------------------------*- C++ -*----------------------------------*\
| =========                 |                                                 |
| \\      /  F ield         | OpenFOAM: The Open Source CFD Toolbox           |
|  \\    /   O peration     | Version:  v1906                                 |
|   \\  /    A nd           | Web:      www.OpenFOAM.com                      |
|    \\/     M anipulation  |                                                 |
\*---------------------------------------------------------------------------*/
FoamFile
{
    version     2.0;
    format      ascii;
    class       volScalarField;
    location    "150";
    object      k;
}
// * * * * * * * * * * * * * * * * * * * * * * * * * * * * * * * * * * * * * //

dimensions      [0 2 -2 0 0 0 0];


internalField   nonuniform List<scalar> 
171728
(
2.62434e-06
4.50508e-07
4.39505e-07
3.50352e-07
2.64212e-06
4.53578e-07
4.43794e-07
3.35356e-07
2.72561e-06
4.64211e-07
4.55206e-07
3.23471e-07
2.80858e-06
4.79692e-07
4.70071e-07
3.11764e-07
2.89127e-06
4.98564e-07
4.90485e-07
3.02272e-07
2.97324e-06
5.22895e-07
5.1479e-07
2.96283e-07
3.05468e-06
5.53526e-07
5.4409e-07
2.92844e-07
3.13559e-06
5.8903e-07
5.79137e-07
2.90324e-07
3.21524e-06
6.29709e-07
6.19746e-07
2.91405e-07
3.29316e-06
6.71081e-07
6.66888e-07
2.98441e-07
3.36913e-06
7.17535e-07
7.20837e-07
3.12528e-07
3.44474e-06
7.71206e-07
7.76205e-07
3.3354e-07
3.51702e-06
8.29646e-07
8.40579e-07
3.59797e-07
3.58769e-06
9.0036e-07
9.04459e-07
3.88881e-07
3.65737e-06
9.8284e-07
9.5302e-07
4.21448e-07
3.72715e-06
1.08342e-06
1.03339e-06
4.58895e-07
3.79945e-06
1.19974e-06
1.13654e-06
5.07188e-07
3.86958e-06
1.34094e-06
1.25413e-06
5.76612e-07
3.94234e-06
1.52799e-06
1.38788e-06
6.82698e-07
4.02291e-06
1.70141e-06
1.55657e-06
8.47849e-07
4.09591e-06
1.8723e-06
1.75887e-06
1.1068e-06
4.18023e-06
2.08159e-06
2.01701e-06
1.50581e-06
4.28716e-06
2.39833e-06
2.36268e-06
2.10187e-06
4.39975e-06
2.80904e-06
2.80369e-06
2.97292e-06
4.53661e-06
3.35711e-06
3.38984e-06
4.2282e-06
4.68973e-06
4.06721e-06
4.11365e-06
5.97095e-06
4.88578e-06
4.99562e-06
5.00879e-06
8.17387e-06
5.11586e-06
6.05282e-06
6.07806e-06
1.07133e-05
5.41513e-06
7.28214e-06
7.34036e-06
1.31921e-05
5.78236e-06
8.65099e-06
8.73513e-06
1.57181e-05
6.24495e-06
1.01621e-05
1.02071e-05
1.8134e-05
6.84095e-06
1.19965e-05
1.20178e-05
2.04609e-05
7.68174e-06
1.43804e-05
1.43998e-05
2.28062e-05
9.03068e-06
1.75369e-05
1.75503e-05
2.55108e-05
1.08313e-05
2.09568e-05
2.0964e-05
2.82768e-05
1.28984e-05
2.40639e-05
2.40682e-05
3.06767e-05
1.4894e-05
2.64452e-05
2.64484e-05
3.24704e-05
1.6243e-05
2.77058e-05
2.77089e-05
3.33167e-05
1.68901e-05
2.82037e-05
2.82066e-05
3.36287e-05
1.71256e-05
2.83627e-05
2.83653e-05
3.37313e-05
1.71949e-05
2.84075e-05
2.841e-05
3.37641e-05
1.72102e-05
2.84147e-05
2.84172e-05
3.37718e-05
1.72125e-05
2.8414e-05
2.84165e-05
3.37608e-05
1.72135e-05
2.84161e-05
2.84185e-05
3.37682e-05
1.72134e-05
2.84148e-05
2.84172e-05
3.37673e-05
1.72135e-05
2.84156e-05
2.84179e-05
3.37688e-05
1.72136e-05
2.84153e-05
2.84177e-05
3.37607e-05
1.72137e-05
2.84153e-05
2.84177e-05
3.37753e-05
1.72138e-05
2.84158e-05
2.84181e-05
3.37682e-05
1.72139e-05
2.84159e-05
2.84181e-05
3.37594e-05
1.7214e-05
2.84153e-05
2.84176e-05
3.37612e-05
1.7214e-05
2.84155e-05
2.84179e-05
3.37689e-05
1.7214e-05
2.84157e-05
2.84179e-05
3.37727e-05
1.72141e-05
2.84155e-05
2.84177e-05
3.37726e-05
1.7214e-05
2.84161e-05
2.8418e-05
3.37716e-05
1.72141e-05
2.84162e-05
2.84181e-05
3.37754e-05
1.72141e-05
2.84156e-05
2.84177e-05
3.37663e-05
1.72141e-05
2.84158e-05
2.84177e-05
3.3761e-05
1.72142e-05
2.84159e-05
2.84178e-05
3.37748e-05
1.72142e-05
2.84161e-05
2.84177e-05
3.37712e-05
1.72142e-05
2.84156e-05
2.84182e-05
3.37586e-05
1.72142e-05
2.84158e-05
2.84182e-05
3.37641e-05
1.72142e-05
2.84161e-05
2.84178e-05
3.37721e-05
1.72142e-05
2.8416e-05
2.84179e-05
3.37734e-05
1.72142e-05
2.84157e-05
2.84178e-05
3.37707e-05
1.72142e-05
2.84159e-05
2.84177e-05
3.37669e-05
1.72142e-05
2.84161e-05
2.84178e-05
3.37635e-05
1.72142e-05
2.84157e-05
2.84178e-05
3.3761e-05
1.72142e-05
2.84156e-05
2.84177e-05
3.37605e-05
1.72142e-05
2.84157e-05
2.84177e-05
3.37612e-05
1.72142e-05
2.84157e-05
2.84177e-05
3.37612e-05
1.72141e-05
2.84156e-05
2.84177e-05
3.37612e-05
1.72141e-05
2.84157e-05
2.84176e-05
3.37622e-05
1.72141e-05
2.84157e-05
2.84177e-05
3.37627e-05
1.72141e-05
2.84156e-05
2.84176e-05
3.37618e-05
1.72141e-05
2.84156e-05
2.84175e-05
3.37613e-05
1.72141e-05
2.84156e-05
2.84176e-05
3.37615e-05
1.7214e-05
2.84156e-05
2.84176e-05
3.37613e-05
1.7214e-05
2.84155e-05
2.84175e-05
3.37605e-05
1.7214e-05
2.84155e-05
2.84174e-05
3.37603e-05
1.7214e-05
2.84156e-05
2.84176e-05
3.37615e-05
1.7214e-05
2.84156e-05
2.84177e-05
3.37618e-05
1.7214e-05
2.84156e-05
2.84176e-05
3.37612e-05
1.7214e-05
2.84157e-05
2.84176e-05
3.37603e-05
1.7214e-05
2.84158e-05
2.84177e-05
3.37602e-05
1.7214e-05
2.84159e-05
2.84178e-05
3.37611e-05
1.72141e-05
2.84161e-05
2.84181e-05
3.37612e-05
1.72141e-05
2.84164e-05
2.84185e-05
3.37606e-05
1.72141e-05
2.84168e-05
2.84187e-05
3.37603e-05
1.72141e-05
2.84173e-05
2.84191e-05
3.37609e-05
1.72142e-05
2.84181e-05
2.842e-05
3.37619e-05
1.72144e-05
2.84195e-05
2.84214e-05
3.3762e-05
1.72143e-05
2.84215e-05
2.84234e-05
3.3761e-05
1.71983e-05
2.84143e-05
2.84159e-05
3.37552e-05
1.68195e-05
2.73163e-05
2.73161e-05
3.29353e-05
3.49283e-07
3.77282e-07
3.86433e-07
3.77048e-07
3.27006e-07
3.88567e-07
2.69057e-06
2.69849e-06
2.69746e-06
2.68407e-06
3.89018e-07
3.26691e-07
3.68842e-07
3.80711e-07
3.80515e-07
3.53632e-07
3.45902e-07
3.32502e-07
4.44971e-07
4.44889e-07
4.43915e-07
4.46038e-07
3.74161e-07
3.61946e-07
3.89285e-07
4.56817e-07
3.93002e-07
4.58564e-07
3.82323e-07
4.52055e-07
3.86298e-07
3.66072e-07
3.55123e-07
4.47634e-07
4.41876e-07
4.48322e-07
3.38035e-07
3.29359e-07
3.20486e-07
4.45155e-07
4.47856e-07
4.51262e-07
4.53109e-07
3.59263e-07
3.52836e-07
3.95325e-07
4.60656e-07
4.04549e-07
4.68314e-07
3.88815e-07
4.61627e-07
3.97479e-07
3.5263e-07
3.46906e-07
4.49952e-07
4.52417e-07
4.56573e-07
3.26434e-07
3.18181e-07
3.14017e-07
4.54135e-07
4.55195e-07
4.63809e-07
4.63632e-07
3.50663e-07
3.44613e-07
4.08267e-07
4.71324e-07
4.22279e-07
4.82185e-07
4.00676e-07
4.76383e-07
4.1174e-07
3.44763e-07
3.40563e-07
4.59037e-07
4.65972e-07
4.6792e-07
3.14515e-07
3.12332e-07
3.0902e-07
4.67981e-07
4.6689e-07
4.8071e-07
4.77837e-07
3.42075e-07
3.36238e-07
4.27331e-07
4.86688e-07
4.45671e-07
5.00937e-07
4.15892e-07
4.93651e-07
4.29963e-07
3.38471e-07
3.34124e-07
4.71459e-07
4.85237e-07
4.84223e-07
3.0475e-07
3.07208e-07
3.04514e-07
4.85709e-07
4.82576e-07
5.01067e-07
4.96314e-07
3.33807e-07
3.28204e-07
4.52341e-07
5.05493e-07
4.74041e-07
5.2078e-07
4.35309e-07
5.16499e-07
4.52733e-07
3.32098e-07
3.30613e-07
4.88928e-07
5.08726e-07
5.06101e-07
2.98069e-07
3.02839e-07
3.01359e-07
5.06415e-07
5.00595e-07
5.26078e-07
5.13179e-07
3.25742e-07
3.21456e-07
4.81897e-07
5.2716e-07
5.06478e-07
5.48869e-07
4.58974e-07
5.46385e-07
4.79079e-07
3.28998e-07
3.28828e-07
5.12678e-07
5.37038e-07
5.33521e-07
2.94565e-07
2.9986e-07
3.00105e-07
5.32414e-07
5.17646e-07
5.56079e-07
5.36103e-07
3.19584e-07
3.18682e-07
5.14329e-07
5.57072e-07
5.41117e-07
5.83521e-07
4.86048e-07
5.8003e-07
5.10793e-07
3.27481e-07
3.29338e-07
5.41114e-07
5.70167e-07
5.6523e-07
2.91777e-07
2.9886e-07
3.03809e-07
5.63796e-07
5.42859e-07
5.89431e-07
5.7022e-07
3.17163e-07
3.1808e-07
5.5037e-07
5.92556e-07
5.80826e-07
6.2521e-07
5.19179e-07
6.20225e-07
5.48678e-07
3.28266e-07
3.37018e-07
5.73214e-07
6.09347e-07
6.01216e-07
2.92513e-07
3.02921e-07
3.12697e-07
5.99235e-07
5.79479e-07
6.28887e-07
6.10799e-07
3.16914e-07
3.25345e-07
5.92021e-07
6.35908e-07
6.29775e-07
6.7265e-07
5.59014e-07
6.60451e-07
5.92957e-07
3.36341e-07
3.52401e-07
6.11068e-07
6.55215e-07
6.433e-07
2.99296e-07
3.12012e-07
3.26683e-07
6.39844e-07
6.22946e-07
6.74947e-07
6.59608e-07
3.24559e-07
3.38331e-07
6.4227e-07
6.8556e-07
6.81259e-07
7.24731e-07
6.05623e-07
7.0561e-07
6.43863e-07
3.52045e-07
3.72216e-07
6.5537e-07
7.06491e-07
6.93282e-07
3.13035e-07
3.26237e-07
3.45532e-07
6.87097e-07
6.73506e-07
7.27943e-07
7.17815e-07
3.37618e-07
3.5225e-07
6.96768e-07
7.38758e-07
7.43513e-07
7.78719e-07
6.58551e-07
7.57608e-07
7.04065e-07
3.72059e-07
3.95226e-07
7.06823e-07
7.62973e-07
7.48833e-07
3.33717e-07
3.45344e-07
3.7014e-07
7.4269e-07
7.3373e-07
7.87799e-07
7.82023e-07
3.51446e-07
3.66125e-07
7.58915e-07
7.92449e-07
8.07816e-07
8.36531e-07
7.19835e-07
8.14443e-07
7.72719e-07
3.95069e-07
4.15739e-07
7.63395e-07
8.24172e-07
8.10245e-07
3.59729e-07
3.70269e-07
3.98316e-07
8.03168e-07
7.98655e-07
8.55109e-07
8.56875e-07
3.65412e-07
3.85532e-07
8.23619e-07
8.50408e-07
8.73252e-07
8.9563e-07
7.90445e-07
8.8231e-07
8.4735e-07
4.15363e-07
4.35188e-07
8.2606e-07
8.90344e-07
8.73127e-07
3.88515e-07
3.98488e-07
4.27585e-07
8.72932e-07
8.76888e-07
9.26476e-07
9.37604e-07
3.85319e-07
4.14349e-07
8.91835e-07
9.12308e-07
9.49437e-07
9.63746e-07
8.67436e-07
9.62296e-07
9.29155e-07
4.34867e-07
4.5739e-07
8.88733e-07
9.40725e-07
9.3858e-07
4.2078e-07
4.2806e-07
4.62016e-07
9.46075e-07
9.59437e-07
1.00924e-06
1.03138e-06
4.14963e-07
4.55018e-07
9.68866e-07
9.82504e-07
1.03753e-06
1.04481e-06
9.50917e-07
1.05549e-06
1.01837e-06
4.57392e-07
4.83424e-07
9.56182e-07
1.01089e-06
1.01557e-06
4.56637e-07
4.64237e-07
5.03623e-07
1.03067e-06
1.05611e-06
1.10644e-06
1.13558e-06
4.57506e-07
5.09899e-07
1.06009e-06
1.06607e-06
1.13038e-06
1.13895e-06
1.04119e-06
1.1711e-06
1.11626e-06
4.83577e-07
5.096e-07
1.03692e-06
1.10982e-06
1.10824e-06
4.99556e-07
5.11155e-07
5.70754e-07
1.13489e-06
1.16323e-06
1.21956e-06
1.24408e-06
5.19469e-07
5.87411e-07
1.15944e-06
1.1651e-06
1.24946e-06
1.24824e-06
1.14428e-06
1.29778e-06
1.22659e-06
5.14161e-07
5.60748e-07
1.135e-06
1.22136e-06
1.2172e-06
5.63882e-07
5.84294e-07
6.70348e-07
1.25222e-06
1.27572e-06
1.3574e-06
1.3744e-06
6.02726e-07
7.02101e-07
1.28333e-06
1.28273e-06
1.38782e-06
1.38158e-06
1.25795e-06
1.485e-06
1.35891e-06
5.72045e-07
6.5237e-07
1.24896e-06
1.35343e-06
1.34975e-06
6.61721e-07
6.92076e-07
8.33196e-07
1.39377e-06
1.40858e-06
1.52539e-06
1.5317e-06
7.24793e-07
8.5505e-07
1.42539e-06
1.41577e-06
1.57474e-06
1.53864e-06
1.39433e-06
1.66045e-06
1.51906e-06
6.72481e-07
8.02463e-07
1.38578e-06
1.5143e-06
1.51057e-06
8.13114e-07
8.71484e-07
1.09527e-06
1.57335e-06
1.57512e-06
1.7255e-06
1.72152e-06
8.88181e-07
1.06966e-06
1.63041e-06
1.57981e-06
1.80433e-06
1.72148e-06
1.56238e-06
1.82618e-06
1.70364e-06
8.36904e-07
1.04551e-06
1.55418e-06
1.70213e-06
1.69661e-06
1.05154e-06
1.15336e-06
1.47925e-06
1.78354e-06
1.78189e-06
1.97869e-06
1.98596e-06
1.1196e-06
1.43102e-06
1.86886e-06
1.77947e-06
2.07768e-06
1.96903e-06
1.76113e-06
2.02382e-06
1.9511e-06
1.10232e-06
1.41272e-06
1.75396e-06
1.94766e-06
1.94801e-06
1.41924e-06
1.56616e-06
2.01229e-06
2.04924e-06
2.0625e-06
2.29843e-06
2.34129e-06
1.51962e-06
1.99513e-06
2.15015e-06
2.03779e-06
2.38081e-06
2.28038e-06
2.01943e-06
2.31045e-06
2.26992e-06
1.49737e-06
1.969e-06
2.01811e-06
2.26649e-06
2.26966e-06
1.97187e-06
2.14009e-06
2.86024e-06
2.39878e-06
2.44731e-06
2.74078e-06
2.79066e-06
2.12744e-06
2.82885e-06
2.4648e-06
2.3762e-06
2.74147e-06
2.69504e-06
2.36723e-06
2.69412e-06
2.68647e-06
2.10135e-06
2.78657e-06
2.36759e-06
2.68394e-06
2.69022e-06
2.78537e-06
3.05834e-06
4.07933e-06
2.86762e-06
2.92037e-06
3.30323e-06
3.36742e-06
3.01985e-06
3.99652e-06
2.84688e-06
2.81314e-06
3.2311e-06
3.22688e-06
2.80915e-06
3.20985e-06
3.24189e-06
2.97185e-06
3.96473e-06
2.81331e-06
3.23001e-06
3.24871e-06
3.96001e-06
4.34801e-06
5.71703e-06
3.46671e-06
3.52817e-06
3.99836e-06
4.01299e-06
4.24864e-06
5.54931e-06
3.38207e-06
3.38381e-06
3.88849e-06
3.89965e-06
3.40388e-06
3.8667e-06
3.93916e-06
4.23214e-06
5.60356e-06
3.41209e-06
3.91884e-06
3.9475e-06
5.61713e-06
6.07082e-06
7.82114e-06
4.1926e-06
4.18169e-06
4.84789e-06
4.75767e-06
5.89616e-06
7.65013e-06
4.07941e-06
4.09002e-06
4.7336e-06
4.7326e-06
4.1394e-06
4.75159e-06
4.81096e-06
5.95731e-06
7.69935e-06
4.14776e-06
4.76838e-06
4.82263e-06
7.7342e-06
8.25389e-06
1.02631e-05
5.08907e-06
4.97916e-06
5.86644e-06
5.72026e-06
8.08296e-06
1.01145e-05
4.97689e-06
4.97239e-06
5.75872e-06
5.75112e-06
5.0598e-06
5.77593e-06
5.87555e-06
8.13131e-06
1.01729e-05
5.06972e-06
5.79589e-06
5.87247e-06
1.02343e-05
1.07395e-05
1.28436e-05
6.14637e-06
5.99051e-06
7.08435e-06
6.89055e-06
1.0599e-05
1.27334e-05
6.0359e-06
6.02797e-06
6.93552e-06
6.92919e-06
6.15884e-06
6.95768e-06
7.02927e-06
1.06554e-05
1.27852e-05
6.15771e-06
7.00534e-06
7.06822e-06
1.27285e-05
1.33326e-05
1.53349e-05
7.42932e-06
7.22138e-06
8.48991e-06
8.27164e-06
1.32258e-05
1.52653e-05
7.25898e-06
7.25741e-06
8.27327e-06
8.3035e-06
7.33707e-06
8.30252e-06
8.32905e-06
1.32811e-05
1.53427e-05
7.39266e-06
8.38664e-06
8.40761e-06
1.52259e-05
1.58003e-05
1.76608e-05
8.83694e-06
8.63026e-06
9.89585e-06
9.75113e-06
1.57436e-05
1.76545e-05
8.62093e-06
8.66221e-06
9.72454e-06
9.77798e-06
8.67562e-06
9.75858e-06
9.77671e-06
1.58196e-05
1.76837e-05
8.75162e-06
9.81495e-06
9.8328e-06
1.76725e-05
1.81163e-05
1.99814e-05
1.02798e-05
1.01558e-05
1.15755e-05
1.14969e-05
1.81144e-05
1.99752e-05
1.01292e-05
1.018e-05
1.14756e-05
1.15128e-05
1.01791e-05
1.1504e-05
1.15142e-05
1.81326e-05
1.99734e-05
1.02284e-05
1.15278e-05
1.15461e-05
2.0001e-05
2.04442e-05
2.2322e-05
1.20593e-05
1.19909e-05
1.37501e-05
1.37072e-05
2.04363e-05
2.23103e-05
1.19723e-05
1.20049e-05
1.3696e-05
1.37181e-05
1.20052e-05
1.37081e-05
1.37124e-05
2.04348e-05
2.23185e-05
1.20321e-05
1.37278e-05
1.37255e-05
2.23231e-05
2.28073e-05
2.49725e-05
1.44173e-05
1.43818e-05
1.6717e-05
1.66998e-05
2.27959e-05
2.49647e-05
1.43726e-05
1.43925e-05
1.66939e-05
1.67096e-05
1.4385e-05
1.66959e-05
1.67003e-05
2.28048e-05
2.49759e-05
1.43944e-05
1.67112e-05
1.67019e-05
2.49706e-05
2.55124e-05
2.77685e-05
1.75545e-05
1.75418e-05
2.01246e-05
2.01205e-05
2.5506e-05
2.77653e-05
1.75363e-05
1.75507e-05
2.01153e-05
2.01261e-05
1.75419e-05
2.01149e-05
2.01206e-05
2.55162e-05
2.77722e-05
1.7542e-05
2.01232e-05
2.01181e-05
2.77695e-05
2.8276e-05
3.02503e-05
2.09653e-05
2.09627e-05
2.33397e-05
2.33391e-05
2.82732e-05
3.02481e-05
2.09578e-05
2.09673e-05
2.33352e-05
2.33419e-05
2.09632e-05
2.33344e-05
2.33409e-05
2.82792e-05
3.02524e-05
2.09601e-05
2.33391e-05
2.33374e-05
3.02523e-05
3.06751e-05
3.21741e-05
2.40687e-05
2.40684e-05
2.59554e-05
2.59554e-05
3.0673e-05
3.21721e-05
2.4065e-05
2.40708e-05
2.59527e-05
2.5957e-05
2.40704e-05
2.59519e-05
2.59576e-05
3.06767e-05
3.2175e-05
2.40671e-05
2.59549e-05
2.59549e-05
3.21758e-05
3.24689e-05
3.31798e-05
2.64486e-05
2.64486e-05
2.74859e-05
2.74859e-05
3.24671e-05
3.31778e-05
2.64462e-05
2.64501e-05
2.7484e-05
2.74869e-05
2.6451e-05
2.7483e-05
2.74888e-05
3.24695e-05
3.31808e-05
2.64484e-05
2.74861e-05
2.74864e-05
3.31823e-05
3.33144e-05
3.35535e-05
2.77084e-05
2.77084e-05
2.81263e-05
2.81263e-05
3.33126e-05
3.35518e-05
2.77068e-05
2.77094e-05
2.81249e-05
2.81271e-05
2.77113e-05
2.81239e-05
2.81292e-05
3.33152e-05
3.35542e-05
2.77091e-05
2.81268e-05
2.81272e-05
3.35557e-05
3.36265e-05
3.3682e-05
2.82059e-05
2.82058e-05
2.83412e-05
2.83411e-05
3.36249e-05
3.36804e-05
2.82045e-05
2.82067e-05
2.834e-05
2.8342e-05
2.82088e-05
2.83392e-05
2.83441e-05
3.3627e-05
3.36826e-05
2.82069e-05
2.83418e-05
2.83422e-05
3.36841e-05
3.37291e-05
3.37223e-05
2.83647e-05
2.83646e-05
2.84031e-05
2.84031e-05
3.37276e-05
3.37206e-05
2.83635e-05
2.83654e-05
2.84019e-05
2.84039e-05
2.83675e-05
2.84013e-05
2.84059e-05
3.37295e-05
3.37226e-05
2.83658e-05
2.84037e-05
2.84042e-05
3.37241e-05
3.37621e-05
3.37336e-05
2.84093e-05
2.84093e-05
2.84165e-05
2.84164e-05
3.37607e-05
3.37319e-05
2.84083e-05
2.84101e-05
2.84154e-05
2.84172e-05
2.84121e-05
2.84145e-05
2.84192e-05
3.37624e-05
3.37339e-05
2.84104e-05
2.8417e-05
2.84175e-05
3.37354e-05
3.37699e-05
3.37229e-05
2.84166e-05
2.84165e-05
2.8416e-05
2.84159e-05
3.37684e-05
3.37211e-05
2.84156e-05
2.84173e-05
2.84149e-05
2.84167e-05
2.84193e-05
2.8414e-05
2.84187e-05
3.37702e-05
3.37231e-05
2.84176e-05
2.84165e-05
2.84169e-05
3.37245e-05
3.37593e-05
3.37268e-05
2.84159e-05
2.84159e-05
2.84172e-05
2.84173e-05
3.37575e-05
3.37253e-05
2.84149e-05
2.84167e-05
2.84162e-05
2.84181e-05
2.84186e-05
2.84154e-05
2.842e-05
3.37593e-05
3.37277e-05
2.84169e-05
2.84179e-05
2.84183e-05
3.37292e-05
3.37657e-05
3.3733e-05
2.84179e-05
2.8418e-05
2.84174e-05
2.84173e-05
3.37643e-05
3.3731e-05
2.84169e-05
2.84187e-05
2.84164e-05
2.8418e-05
2.84206e-05
2.84154e-05
2.84199e-05
3.37665e-05
3.37324e-05
2.84189e-05
2.84177e-05
2.84182e-05
3.37336e-05
3.37669e-05
3.37227e-05
2.84167e-05
2.84167e-05
2.84171e-05
2.84171e-05
3.37648e-05
3.37219e-05
2.84157e-05
2.84174e-05
2.84159e-05
2.84178e-05
2.84194e-05
2.84152e-05
2.84198e-05
3.37661e-05
3.37246e-05
2.84176e-05
2.84176e-05
2.8418e-05
3.37265e-05
3.37655e-05
3.37271e-05
2.84175e-05
2.84175e-05
2.84173e-05
2.84172e-05
3.37646e-05
3.37242e-05
2.84164e-05
2.84181e-05
2.84163e-05
2.8418e-05
2.84199e-05
2.84154e-05
2.84198e-05
3.37669e-05
3.37255e-05
2.84184e-05
2.84177e-05
2.84183e-05
3.3727e-05
3.37603e-05
3.37343e-05
2.84172e-05
2.84171e-05
2.84174e-05
2.84173e-05
3.37577e-05
3.37334e-05
2.84161e-05
2.84179e-05
2.84161e-05
2.84179e-05
2.84198e-05
2.84153e-05
2.84199e-05
3.3759e-05
3.37357e-05
2.84181e-05
2.84177e-05
2.84181e-05
3.3737e-05
3.37735e-05
3.37202e-05
2.84173e-05
2.84172e-05
2.84175e-05
2.84174e-05
3.3772e-05
3.37214e-05
2.84161e-05
2.84178e-05
2.84162e-05
2.84182e-05
2.84197e-05
2.84158e-05
2.84203e-05
3.37735e-05
3.37261e-05
2.84181e-05
2.84181e-05
2.84184e-05
3.37251e-05
3.37621e-05
3.37221e-05
2.84177e-05
2.84175e-05
2.84174e-05
2.84173e-05
3.37645e-05
3.37187e-05
2.84161e-05
2.84181e-05
2.8416e-05
2.8418e-05
2.84202e-05
2.84153e-05
2.84197e-05
3.37685e-05
3.37213e-05
2.84185e-05
2.84176e-05
2.8418e-05
3.37219e-05
3.37569e-05
3.37315e-05
2.84175e-05
2.84176e-05
2.84177e-05
2.84172e-05
3.37571e-05
3.37218e-05
2.84161e-05
2.84183e-05
2.84162e-05
2.8418e-05
2.84202e-05
2.84152e-05
2.84197e-05
3.37625e-05
3.37217e-05
2.84184e-05
2.84176e-05
2.8418e-05
3.37277e-05
3.37639e-05
3.37353e-05
2.84176e-05
2.84173e-05
2.84178e-05
2.84174e-05
3.37562e-05
3.37301e-05
2.84162e-05
2.84181e-05
2.84162e-05
2.84179e-05
2.84196e-05
2.84158e-05
2.84202e-05
3.37583e-05
3.37244e-05
2.84179e-05
2.84179e-05
2.84184e-05
3.37356e-05
3.37723e-05
3.37299e-05
2.84176e-05
2.84173e-05
2.84182e-05
2.84177e-05
3.37626e-05
3.37331e-05
2.84162e-05
2.84181e-05
2.84163e-05
2.8418e-05
2.84199e-05
2.84157e-05
2.84201e-05
3.37591e-05
3.37255e-05
2.84182e-05
2.84178e-05
2.84184e-05
3.3736e-05
3.37706e-05
3.37246e-05
2.84179e-05
2.84173e-05
2.84181e-05
2.84179e-05
3.37682e-05
3.37323e-05
2.84161e-05
2.84179e-05
2.84165e-05
2.84184e-05
2.84199e-05
2.84159e-05
2.84203e-05
3.37594e-05
3.37281e-05
2.84182e-05
2.84178e-05
2.84185e-05
3.3734e-05
3.37671e-05
3.37225e-05
2.84181e-05
2.84175e-05
2.84179e-05
2.84179e-05
3.37697e-05
3.37308e-05
2.84164e-05
2.84181e-05
2.84162e-05
2.84182e-05
2.842e-05
2.84162e-05
2.84203e-05
3.37612e-05
3.37321e-05
2.84182e-05
2.84182e-05
2.84185e-05
3.37337e-05
3.37641e-05
3.37213e-05
2.84181e-05
2.84179e-05
2.84179e-05
2.84176e-05
3.37704e-05
3.37251e-05
2.84164e-05
2.84181e-05
2.8416e-05
2.8418e-05
2.84202e-05
2.84157e-05
2.84202e-05
3.3765e-05
3.37307e-05
2.84183e-05
2.84179e-05
2.84186e-05
3.37365e-05
3.37613e-05
3.37216e-05
2.84181e-05
2.84178e-05
2.84178e-05
2.84175e-05
3.3767e-05
3.3724e-05
2.84162e-05
2.8418e-05
2.8416e-05
2.8418e-05
2.84202e-05
2.84156e-05
2.842e-05
3.37637e-05
3.37299e-05
2.84186e-05
2.84177e-05
2.8418e-05
3.37233e-05
3.37575e-05
3.37279e-05
2.84179e-05
2.84175e-05
2.8418e-05
2.84178e-05
3.37647e-05
3.37295e-05
2.8416e-05
2.84179e-05
2.84162e-05
2.84182e-05
2.842e-05
2.8416e-05
2.84202e-05
3.37626e-05
3.37316e-05
2.84182e-05
2.84179e-05
2.84181e-05
3.37271e-05
3.37612e-05
3.37296e-05
2.84178e-05
2.84175e-05
2.84185e-05
2.84178e-05
3.377e-05
3.37239e-05
2.84159e-05
2.8418e-05
2.84166e-05
2.84181e-05
2.842e-05
2.84159e-05
2.84203e-05
3.37647e-05
3.37275e-05
2.84179e-05
2.84178e-05
2.84187e-05
3.37383e-05
3.37643e-05
3.37216e-05
2.84183e-05
2.84177e-05
2.8418e-05
2.84177e-05
3.37658e-05
3.37245e-05
2.84165e-05
2.8418e-05
2.84161e-05
2.84183e-05
2.84202e-05
2.84158e-05
2.842e-05
3.37603e-05
3.37332e-05
2.84183e-05
2.8418e-05
2.84183e-05
3.37285e-05
3.37564e-05
3.37343e-05
2.8418e-05
2.84177e-05
2.84182e-05
2.84177e-05
3.37643e-05
3.37324e-05
2.84161e-05
2.8418e-05
2.84163e-05
2.84183e-05
2.84203e-05
2.84157e-05
2.84199e-05
3.37653e-05
3.37356e-05
2.84186e-05
2.84183e-05
2.8418e-05
3.37219e-05
3.37672e-05
3.37334e-05
2.84181e-05
2.84176e-05
2.84181e-05
2.84177e-05
3.37698e-05
3.37306e-05
2.84162e-05
2.84182e-05
2.84162e-05
2.84181e-05
2.84199e-05
2.84161e-05
2.84202e-05
3.3773e-05
3.3729e-05
2.84182e-05
2.84178e-05
2.84181e-05
3.37312e-05
3.3772e-05
3.37275e-05
2.84181e-05
2.84176e-05
2.84183e-05
2.84177e-05
3.37705e-05
3.37224e-05
2.84162e-05
2.84183e-05
2.84162e-05
2.8418e-05
2.84199e-05
2.8416e-05
2.84204e-05
3.37706e-05
3.37213e-05
2.84181e-05
2.84178e-05
2.84182e-05
3.37367e-05
3.37694e-05
3.37218e-05
2.84182e-05
2.84177e-05
2.84182e-05
2.84176e-05
3.37655e-05
3.37185e-05
2.84161e-05
2.8418e-05
2.84164e-05
2.84181e-05
2.84201e-05
2.84157e-05
2.84202e-05
3.37632e-05
3.37217e-05
2.84179e-05
2.84179e-05
2.84186e-05
3.37342e-05
3.37637e-05
3.37214e-05
2.84183e-05
2.84177e-05
2.84181e-05
2.84176e-05
3.37565e-05
3.37242e-05
2.84163e-05
2.84181e-05
2.84161e-05
2.84182e-05
2.84202e-05
2.84156e-05
2.84201e-05
3.37574e-05
3.37296e-05
2.84183e-05
2.84177e-05
2.84182e-05
3.37289e-05
3.37579e-05
3.37262e-05
2.8418e-05
2.84174e-05
2.84184e-05
2.84183e-05
3.37576e-05
3.37348e-05
2.84163e-05
2.8418e-05
2.84159e-05
2.84182e-05
2.84202e-05
2.84159e-05
2.842e-05
3.37625e-05
3.3734e-05
2.84184e-05
2.84178e-05
2.8418e-05
3.37248e-05
3.37597e-05
3.37346e-05
2.84182e-05
2.84179e-05
2.84183e-05
2.84177e-05
3.37703e-05
3.37262e-05
2.8416e-05
2.84182e-05
2.84161e-05
2.8418e-05
2.84202e-05
2.84157e-05
2.842e-05
3.37702e-05
3.37275e-05
2.84181e-05
2.84178e-05
2.84181e-05
3.37234e-05
3.37675e-05
3.37344e-05
2.84183e-05
2.84181e-05
2.84183e-05
2.84175e-05
3.37676e-05
3.37201e-05
2.84159e-05
2.8418e-05
2.84164e-05
2.84179e-05
2.842e-05
2.84155e-05
2.84201e-05
3.37642e-05
3.3724e-05
2.84181e-05
2.84177e-05
2.8418e-05
3.37235e-05
3.37733e-05
3.37236e-05
2.84183e-05
2.84175e-05
2.84183e-05
2.84178e-05
3.37567e-05
3.37242e-05
2.84162e-05
2.8418e-05
2.84161e-05
2.8418e-05
2.84201e-05
2.84156e-05
2.84201e-05
3.37594e-05
3.37235e-05
2.84181e-05
2.84177e-05
2.8418e-05
3.3725e-05
3.37655e-05
3.37255e-05
2.84182e-05
2.84176e-05
2.84184e-05
2.84178e-05
3.37583e-05
3.37252e-05
2.84161e-05
2.84179e-05
2.84161e-05
2.84181e-05
2.84201e-05
2.84157e-05
2.842e-05
3.37584e-05
3.37268e-05
2.84181e-05
2.84177e-05
2.8418e-05
3.37265e-05
3.37631e-05
3.3733e-05
2.84183e-05
2.84178e-05
2.84183e-05
2.84176e-05
3.37588e-05
3.37262e-05
2.8416e-05
2.8418e-05
2.84161e-05
2.84181e-05
2.84202e-05
2.84156e-05
2.84199e-05
3.37602e-05
3.37308e-05
2.84181e-05
2.84177e-05
2.8418e-05
3.37267e-05
3.37677e-05
3.3735e-05
2.84183e-05
2.84177e-05
2.84184e-05
2.84175e-05
3.37594e-05
3.37283e-05
2.8416e-05
2.8418e-05
2.84163e-05
2.84182e-05
2.84199e-05
2.84157e-05
2.84201e-05
3.37634e-05
3.37335e-05
2.8418e-05
2.84177e-05
2.8418e-05
3.37272e-05
3.37702e-05
3.37335e-05
2.84183e-05
2.84175e-05
2.84183e-05
2.84176e-05
3.37612e-05
3.373e-05
2.84159e-05
2.84179e-05
2.84164e-05
2.84184e-05
2.84199e-05
2.84157e-05
2.84201e-05
3.37669e-05
3.37341e-05
2.8418e-05
2.84177e-05
2.84181e-05
3.37286e-05
3.37712e-05
3.37319e-05
2.84184e-05
2.84175e-05
2.84182e-05
2.84176e-05
3.37628e-05
3.37309e-05
2.84163e-05
2.84182e-05
2.8416e-05
2.84181e-05
2.842e-05
2.84156e-05
2.84201e-05
3.37689e-05
3.37335e-05
2.84179e-05
2.84179e-05
2.84181e-05
3.3729e-05
3.37695e-05
3.37341e-05
2.84182e-05
2.84176e-05
2.84183e-05
2.84176e-05
3.3764e-05
3.37326e-05
2.84161e-05
2.84181e-05
2.8416e-05
2.84181e-05
2.84201e-05
2.84156e-05
2.842e-05
3.37688e-05
3.37338e-05
2.84181e-05
2.84175e-05
2.8418e-05
3.37276e-05
3.37698e-05
3.37344e-05
2.84181e-05
2.84175e-05
2.84184e-05
2.84177e-05
3.37669e-05
3.37326e-05
2.8416e-05
2.8418e-05
2.84162e-05
2.84183e-05
2.842e-05
2.84156e-05
2.842e-05
3.37685e-05
3.37345e-05
2.84181e-05
2.84174e-05
2.84179e-05
3.37267e-05
3.37717e-05
3.37317e-05
2.84182e-05
2.84176e-05
2.84183e-05
2.84176e-05
3.37698e-05
3.37296e-05
2.84161e-05
2.84182e-05
2.84161e-05
2.84181e-05
2.842e-05
2.84155e-05
2.842e-05
3.37703e-05
3.37332e-05
2.8418e-05
2.84175e-05
2.84179e-05
3.37265e-05
3.37713e-05
3.3729e-05
2.84183e-05
2.84177e-05
2.84181e-05
2.84175e-05
3.37692e-05
3.3727e-05
2.84162e-05
2.84181e-05
2.84159e-05
2.84179e-05
2.842e-05
2.84154e-05
2.84199e-05
3.37709e-05
3.37317e-05
2.8418e-05
2.84174e-05
2.84178e-05
3.37255e-05
3.37696e-05
3.37287e-05
2.84182e-05
2.84176e-05
2.8418e-05
2.84175e-05
3.37671e-05
3.37295e-05
2.8416e-05
2.8418e-05
2.84158e-05
2.84178e-05
2.84199e-05
2.84153e-05
2.84197e-05
3.37697e-05
3.37331e-05
2.84179e-05
2.84173e-05
2.84177e-05
3.37245e-05
3.3769e-05
3.37313e-05
2.84181e-05
2.84175e-05
2.8418e-05
2.84174e-05
3.3768e-05
3.37314e-05
2.84159e-05
2.84179e-05
2.84157e-05
2.84177e-05
2.84199e-05
2.84153e-05
2.84196e-05
3.37694e-05
3.3734e-05
2.84178e-05
2.84173e-05
2.84176e-05
3.37252e-05
3.37697e-05
3.3733e-05
2.8418e-05
2.84175e-05
2.8418e-05
2.84173e-05
3.3769e-05
3.37305e-05
2.84159e-05
2.84178e-05
2.84157e-05
2.84177e-05
2.84198e-05
2.84153e-05
2.84196e-05
3.37706e-05
3.3733e-05
2.84178e-05
2.84173e-05
2.84176e-05
3.37269e-05
3.37697e-05
3.37333e-05
2.84181e-05
2.84174e-05
2.84179e-05
2.84172e-05
3.37686e-05
3.37307e-05
2.84159e-05
2.84179e-05
2.84156e-05
2.84176e-05
2.84198e-05
2.84151e-05
2.84195e-05
3.37712e-05
3.37311e-05
2.84178e-05
2.84171e-05
2.84175e-05
3.37264e-05
3.37691e-05
3.37335e-05
2.84182e-05
2.84175e-05
2.84176e-05
2.8417e-05
3.37684e-05
3.37311e-05
2.84159e-05
2.84179e-05
2.84155e-05
2.84175e-05
2.84198e-05
2.84151e-05
2.84194e-05
3.37706e-05
3.37293e-05
2.84179e-05
2.84169e-05
2.84173e-05
3.37243e-05
3.37688e-05
3.37341e-05
2.84181e-05
2.84175e-05
2.84177e-05
2.8417e-05
3.37689e-05
3.37304e-05
2.84159e-05
2.84179e-05
2.84154e-05
2.84174e-05
2.84199e-05
2.8415e-05
2.84193e-05
3.37694e-05
3.37284e-05
2.84179e-05
2.84169e-05
2.84172e-05
3.37238e-05
3.377e-05
3.37337e-05
2.84181e-05
2.84175e-05
2.84177e-05
2.8417e-05
3.37688e-05
3.37296e-05
2.84159e-05
2.8418e-05
2.84154e-05
2.84173e-05
2.84199e-05
2.84149e-05
2.84192e-05
3.37683e-05
3.37304e-05
2.84179e-05
2.84168e-05
2.84171e-05
3.37249e-05
3.37718e-05
3.37301e-05
2.84184e-05
2.84177e-05
2.84173e-05
2.84167e-05
3.37682e-05
3.37304e-05
2.8416e-05
2.8418e-05
2.84153e-05
2.84173e-05
2.842e-05
2.84148e-05
2.84191e-05
3.37684e-05
3.37336e-05
2.84179e-05
2.84167e-05
2.8417e-05
3.37263e-05
3.37706e-05
3.37269e-05
2.84184e-05
2.84177e-05
2.84173e-05
2.84167e-05
3.37674e-05
3.37317e-05
2.84163e-05
2.84182e-05
2.84151e-05
2.84172e-05
2.84201e-05
2.84147e-05
2.8419e-05
3.37691e-05
3.37341e-05
2.8418e-05
2.84167e-05
2.84169e-05
3.37259e-05
3.37684e-05
3.37279e-05
2.84186e-05
2.84179e-05
2.84172e-05
2.84166e-05
3.37675e-05
3.37319e-05
2.84165e-05
2.84184e-05
2.8415e-05
2.8417e-05
2.84203e-05
2.84147e-05
2.84189e-05
3.37712e-05
3.37314e-05
2.84183e-05
2.84165e-05
2.84168e-05
3.37245e-05
3.37685e-05
3.3731e-05
2.8419e-05
2.84183e-05
2.84169e-05
2.84164e-05
3.37688e-05
3.37306e-05
2.84167e-05
2.84187e-05
2.84149e-05
2.84169e-05
2.84206e-05
2.84145e-05
2.84188e-05
3.37707e-05
3.37296e-05
2.84185e-05
2.84163e-05
2.84167e-05
3.37245e-05
3.37692e-05
3.37328e-05
2.84192e-05
2.84186e-05
2.8417e-05
2.84164e-05
3.3769e-05
3.37296e-05
2.8417e-05
2.8419e-05
2.84148e-05
2.84168e-05
2.8421e-05
2.84145e-05
2.84187e-05
3.37688e-05
3.37325e-05
2.84189e-05
2.84162e-05
2.84166e-05
3.37255e-05
3.37685e-05
3.37338e-05
2.84197e-05
2.84191e-05
2.84171e-05
2.84165e-05
3.37686e-05
3.37299e-05
2.84176e-05
2.84195e-05
2.84149e-05
2.84169e-05
2.84215e-05
2.84145e-05
2.84188e-05
3.37689e-05
3.37339e-05
2.84194e-05
2.84163e-05
2.84166e-05
3.37263e-05
3.37695e-05
3.37339e-05
2.84205e-05
2.84199e-05
2.84174e-05
2.84168e-05
3.37686e-05
3.37304e-05
2.84183e-05
2.84203e-05
2.84153e-05
2.84172e-05
2.84223e-05
2.84148e-05
2.8419e-05
3.37709e-05
3.37316e-05
2.84201e-05
2.84167e-05
2.84169e-05
3.37254e-05
3.37715e-05
3.37316e-05
2.84219e-05
2.84213e-05
2.84181e-05
2.84175e-05
3.37688e-05
3.37309e-05
2.84197e-05
2.84218e-05
2.8416e-05
2.8418e-05
2.84236e-05
2.84156e-05
2.84198e-05
3.37712e-05
3.37288e-05
2.84215e-05
2.84174e-05
2.84176e-05
3.37252e-05
3.37715e-05
3.37247e-05
2.8424e-05
2.84233e-05
2.84113e-05
2.84109e-05
3.37693e-05
3.37266e-05
2.84218e-05
2.84238e-05
2.84093e-05
2.84113e-05
2.84256e-05
2.8409e-05
2.8413e-05
3.37689e-05
3.37259e-05
2.84235e-05
2.84105e-05
2.84108e-05
3.37216e-05
3.37623e-05
3.3351e-05
2.84167e-05
2.84162e-05
2.79831e-05
2.79826e-05
3.37628e-05
3.33505e-05
2.84145e-05
2.84166e-05
2.79827e-05
2.79814e-05
2.84183e-05
2.79835e-05
2.79842e-05
3.37623e-05
3.33512e-05
2.8416e-05
2.79836e-05
2.79838e-05
3.33511e-05
3.29345e-05
2.73152e-05
2.73147e-05
3.29339e-05
2.73152e-05
2.73135e-05
1.68194e-05
1.68187e-05
1.68197e-05
2.73162e-05
3.2934e-05
2.73163e-05
6.65644e-06
1.09584e-06
4.5232e-06
4.52579e-06
9.85683e-08
3.9183e-07
4.51828e-07
2.76743e-06
8.96264e-08
3.83759e-07
2.7549e-06
4.26635e-07
3.61166e-07
2.83906e-07
2.6616e-07
2.89352e-07
4.96156e-06
2.36559e-07
6.54708e-06
1.36887e-05
2.11615e-05
2.8956e-07
4.97621e-06
2.51406e-07
6.53763e-06
2.63298e-06
2.63219e-06
2.61786e-06
2.62257e-06
2.63095e-06
2.63007e-06
2.61543e-06
9.44951e-08
7.17473e-07
1.23161e-06
4.49975e-07
9.64352e-08
6.84995e-07
1.22241e-06
1.41945e-05
2.17324e-05
9.47551e-08
1.22256e-06
6.81073e-07
4.39198e-07
9.31078e-08
1.21374e-06
6.55547e-07
1.71353e-06
1.88513e-06
3.44709e-07
1.71807e-06
1.85684e-06
4.65621e-07
9.63649e-06
3.97933e-07
1.23789e-05
3.66081e-05
4.60333e-05
4.644e-07
9.76431e-06
3.98042e-07
1.2335e-05
2.65041e-06
2.6495e-06
2.63513e-06
2.70498e-06
2.71189e-06
2.7113e-06
2.69743e-06
8.68001e-08
6.57744e-07