/*--------------------------------*- C++ -*----------------------------------*\
| =========                 |                                                 |
| \\      /  F ield         | OpenFOAM: The Open Source CFD Toolbox           |
|  \\    /   O peration     | Version:  v1906                                 |
|   \\  /    A nd           | Web:      www.OpenFOAM.com                      |
|    \\/     M anipulation  |                                                 |
\*---------------------------------------------------------------------------*/
FoamFile
{
    version     2.0;
    format      ascii;
    class       volScalarField;
    location    "150";
    object      nut;
}
// * * * * * * * * * * * * * * * * * * * * * * * * * * * * * * * * * * * * * //

dimensions      [0 2 -1 0 0 0 0];


internalField   nonuniform List<scalar> 
171728
(
2.85852e-05
3.15946e-06
3.16003e-06
2.21251e-06
2.89795e-05
3.32263e-06
3.35427e-06
2.2095e-06
3.00917e-05
3.56462e-06
3.63526e-06
2.23413e-06
3.11455e-05
3.85811e-06
3.94578e-06
2.24229e-06
3.21633e-05
4.18074e-06
4.31779e-06
2.24682e-06
3.3136e-05
4.55573e-06
4.72383e-06
2.27439e-06
3.4079e-05
4.98364e-06
5.17061e-06
2.33063e-06
3.49966e-05
5.42292e-06
5.66888e-06
2.38819e-06
3.58797e-05
5.89356e-06
6.20283e-06
2.45955e-06
3.67287e-05
6.30601e-06
6.79153e-06
2.58488e-06
3.7527e-05
6.72637e-06
7.45452e-06
2.7726e-06
3.83281e-05
7.1851e-06
8.04389e-06
3.02435e-06
3.90609e-05
7.61983e-06
8.77223e-06
3.30498e-06
3.97621e-05
8.15384e-06
9.44891e-06
3.56543e-06
4.04454e-05
8.7562e-06
9.5584e-06
3.79467e-06
4.1104e-05
9.51215e-06
1.00457e-05
3.95807e-06
4.1829e-05
1.03731e-05
1.07182e-05
4.0692e-06
4.24758e-05
1.12996e-05
1.1341e-05
4.19905e-06
4.31507e-05
1.27258e-05
1.18182e-05
4.44745e-06
4.40239e-05
1.35481e-05
1.23646e-05
4.889e-06
4.46537e-05
1.38746e-05
1.28085e-05
5.62909e-06
4.51722e-05
1.39622e-05
1.33406e-05
6.81068e-06
4.60122e-05
1.46526e-05
1.42469e-05
8.60419e-06
4.66437e-05
1.5697e-05
1.54489e-05
1.12137e-05
4.74307e-05
1.72331e-05
1.72635e-05
1.49761e-05
4.79958e-05
1.92853e-05
1.96091e-05
2.04295e-05
4.88503e-05
2.26316e-05
2.26428e-05
2.72286e-05
4.95946e-05
2.65348e-05
2.65368e-05
3.57465e-05
5.08829e-05
3.13631e-05
3.15333e-05
4.36448e-05
5.21554e-05
3.65684e-05
3.70584e-05
5.15259e-05
5.29618e-05
4.15105e-05
4.17838e-05
5.90332e-05
5.3102e-05
4.70508e-05
4.71477e-05
6.6293e-05
5.37175e-05
5.45549e-05
5.46506e-05
7.35554e-05
5.87452e-05
6.65645e-05
6.66354e-05
8.29111e-05
6.82145e-05
8.14934e-05
8.15266e-05
9.37427e-05
8.16195e-05
9.68813e-05
9.68947e-05
0.000104196
9.76342e-05
0.000110578
0.000110582
0.000113045
0.000110229
0.000118703
0.000118707
0.00011759
0.000116866
0.000122129
0.000122132
0.000119335
0.000119417
0.000123263
0.000123265
0.000119914
0.000120197
0.000123592
0.000123593
0.000120102
0.00012038
0.000123654
0.000123654
0.00012017
0.000120406
0.00012365
0.00012365
0.000120104
0.000120418
0.000123662
0.000123662
0.00012013
0.000120417
0.000123656
0.000123655
0.000120155
0.000120417
0.00012366
0.000123659
0.000120131
0.000120418
0.000123658
0.000123657
0.000120106
0.000120418
0.000123658
0.000123657
0.000120195
0.00012042
0.000123662
0.000123661
0.000120133
0.00012042
0.000123662
0.00012366
0.000120075
0.000120421
0.000123657
0.000123656
0.000120102
0.000120421
0.000123659
0.000123658
0.000120156
0.000120421
0.00012366
0.000123658
0.000120179
0.000120422
0.00012366
0.000123657
0.000120174
0.000120421
0.000123664
0.000123659
0.000120173
0.000120422
0.000123664
0.000123659
0.000120195
0.000120422
0.000123659
0.000123657
0.000120119
0.000120421
0.000123661
0.000123657
0.000120102
0.000120422
0.000123662
0.000123657
0.000120202
0.000120422
0.000123663
0.000123657
0.000120157
0.000120422
0.00012366
0.000123661
0.000120078
0.000120422
0.000123662
0.00012366
0.000120123
0.000120422
0.000123663
0.000123658
0.000120172
0.000120423
0.000123662
0.000123658
0.000120169
0.000120423
0.00012366
0.000123658
0.000120142
0.000120423
0.000123662
0.000123657
0.000120116
0.000120422
0.000123663
0.000123658
0.000120097
0.000120422
0.00012366
0.000123658
0.000120086
0.000120423
0.00012366
0.000123657
0.000120088
0.000120422
0.00012366
0.000123657
0.000120094
0.000120423
0.00012366
0.000123657
0.000120092
0.000120422
0.000123659
0.000123657
0.000120094
0.000120422
0.00012366
0.000123656
0.000120103
0.000120422
0.00012366
0.000123657
0.000120104
0.000120422
0.00012366
0.000123657
0.000120095
0.000120422
0.00012366
0.000123656
0.000120091
0.000120422
0.00012366
0.000123657
0.000120093
0.000120422
0.00012366
0.000123657
0.000120089
0.000120422
0.00012366
0.000123657
0.000120082
0.000120422
0.00012366
0.000123656
0.000120083
0.000120422
0.000123661
0.000123658
0.000120094
0.000120422
0.00012366
0.000123658
0.000120095
0.000120422
0.00012366
0.000123657
0.000120089
0.000120422
0.000123661
0.000123657
0.000120082
0.000120422
0.000123661
0.000123657
0.000120085
0.000120422
0.000123662
0.000123657
0.000120093
0.000120422
0.000123662
0.000123659
0.000120092
0.000120423
0.000123664
0.000123661
0.000120085
0.000120423
0.000123665
0.000123661
0.000120084
0.000120423
0.000123668
0.000123664
0.000120091
0.000120424
0.000123673
0.000123669
0.0001201
0.000120426
0.000123681
0.000123678
0.0001201
0.000120427
0.000123696
0.000123693
0.000120098
0.000120381
0.000123675
0.00012367
0.000120103
0.000120942
0.000122775
0.00012277
0.0001203
2.18521e-06
2.72681e-06
2.9315e-06
2.37169e-06
2.22035e-06
2.77279e-06
2.92493e-05
2.93405e-05
2.94874e-05
2.93371e-05
2.78269e-06
2.36089e-06
2.31721e-06
2.78263e-06
2.7554e-06
2.22962e-06
2.16623e-06
2.13989e-06
3.24741e-06
3.25108e-06
3.34628e-06
3.38317e-06
2.3607e-06
2.39333e-06
2.67113e-06
3.21518e-06
2.78338e-06
3.35003e-06
2.74669e-06
3.27323e-06
2.88306e-06
2.30569e-06
2.33639e-06
3.25184e-06
3.29471e-06
3.37909e-06
2.21384e-06
2.12868e-06
2.1399e-06
3.40142e-06
3.449e-06
3.59111e-06
3.63568e-06
2.39467e-06
2.46761e-06
2.8333e-06
3.41474e-06
3.01186e-06
3.61806e-06
2.94651e-06
3.50769e-06
3.14383e-06
2.33741e-06
2.40593e-06
3.44065e-06
3.56858e-06
3.64012e-06
2.2421e-06
2.13594e-06
2.18886e-06
3.66467e-06
3.70003e-06
3.88931e-06
3.92179e-06
2.47025e-06
2.5188e-06
3.07838e-06
3.68908e-06
3.30989e-06
3.92139e-06
3.21245e-06
3.7923e-06
3.42939e-06
2.4073e-06
2.46927e-06
3.70842e-06
3.8654e-06
3.92635e-06
2.25133e-06
2.18961e-06
2.23757e-06
3.97585e-06
4.00008e-06
4.22897e-06
4.23583e-06
2.51255e-06
2.54643e-06
3.38897e-06
4.0089e-06
3.66988e-06
4.28434e-06
3.50583e-06
4.10016e-06
3.74611e-06
2.46611e-06
2.49613e-06
4.00422e-06
4.22653e-06
4.26254e-06
2.25785e-06
2.23475e-06
2.27901e-06
4.32407e-06
4.33442e-06
4.59838e-06
4.60219e-06
2.53889e-06
2.56627e-06
3.7681e-06
4.36505e-06
4.08005e-06
4.62378e-06
3.83477e-06
4.46004e-06
4.11104e-06
2.48903e-06
2.54102e-06
4.34868e-06
4.62419e-06
4.65106e-06
2.27829e-06
2.27562e-06
2.32732e-06
4.69046e-06
4.68003e-06
5.00363e-06
4.89114e-06
2.55662e-06
2.59535e-06
4.19062e-06
4.72422e-06
4.52756e-06
5.05057e-06
4.20652e-06
4.88906e-06
4.49522e-06
2.5378e-06
2.61104e-06
4.76111e-06
5.06371e-06
5.09591e-06
2.335e-06
2.32305e-06
2.38656e-06
5.096e-06
4.95475e-06
5.4399e-06
5.19276e-06
2.59199e-06
2.65942e-06
4.62756e-06
5.17169e-06
4.96365e-06
5.54803e-06
4.58829e-06
5.31392e-06
4.9127e-06
2.61022e-06
2.70668e-06
5.21392e-06
5.54129e-06
5.56575e-06
2.3927e-06
2.3821e-06
2.49058e-06
5.54283e-06
5.26922e-06
5.87547e-06
5.60556e-06
2.65316e-06
2.71131e-06
5.07229e-06
5.67173e-06
5.41467e-06
6.12424e-06
5.01433e-06
5.79011e-06
5.3759e-06
2.7047e-06
2.87826e-06
5.67291e-06
6.06685e-06
6.04715e-06
2.46901e-06
2.48314e-06
2.63911e-06
6.00286e-06
5.70572e-06
6.35545e-06
6.04504e-06
2.70124e-06
2.84689e-06
5.53805e-06
6.2608e-06
5.96228e-06
6.74201e-06
5.49419e-06
6.19954e-06
5.88299e-06
2.87368e-06
3.1426e-06
6.17059e-06
6.64893e-06
6.56511e-06
2.59632e-06
2.63005e-06
2.8271e-06
6.48479e-06
6.1787e-06
6.88145e-06
6.54888e-06
2.83734e-06
3.03419e-06
6.08971e-06
6.90496e-06
6.47058e-06
7.38969e-06
6.02687e-06
6.61832e-06
6.43113e-06
3.13775e-06
3.45821e-06
6.71235e-06
7.27132e-06
7.16436e-06
2.79001e-06
2.81169e-06
3.04695e-06
7.01007e-06
6.69138e-06
7.44701e-06
7.13321e-06
3.01558e-06
3.1886e-06
6.63649e-06
7.56148e-06
7.11003e-06
7.99806e-06
6.5938e-06
7.06974e-06
7.06866e-06
3.44937e-06
3.80622e-06
7.3234e-06
7.91079e-06
7.79155e-06
3.04834e-06
3.02505e-06
3.31147e-06
7.60624e-06
7.29078e-06
8.04597e-06
7.72724e-06
3.1597e-06
3.28053e-06
7.25605e-06
8.14426e-06
7.71527e-06
8.60303e-06
7.22805e-06
7.50554e-06
7.77804e-06
3.79065e-06
4.08038e-06
7.94702e-06
8.57523e-06
8.45135e-06
3.33943e-06
3.282e-06
3.57854e-06
8.18479e-06
7.86849e-06
8.67516e-06
8.41344e-06
3.23898e-06
3.38363e-06
7.84353e-06
8.72374e-06
8.22069e-06
9.11744e-06
7.94738e-06
8.01948e-06
8.49325e-06
4.04804e-06
4.25473e-06
8.61105e-06
9.32622e-06
9.03562e-06
3.61128e-06
3.5333e-06
3.77173e-06
8.83245e-06
8.58821e-06
9.23876e-06
9.06948e-06
3.33196e-06
3.53722e-06
8.37001e-06
9.26082e-06
8.79207e-06
9.66458e-06
8.67918e-06
8.61618e-06
9.21928e-06
4.19894e-06
4.38815e-06
9.15701e-06
9.54633e-06
9.51257e-06
3.86116e-06
3.70643e-06
3.92013e-06
9.38916e-06
9.24032e-06
9.81863e-06
9.80112e-06
3.47369e-06
3.74688e-06
8.92219e-06
9.8109e-06
9.42188e-06
1.02744e-05
9.40506e-06
9.28826e-06
9.92042e-06
4.32383e-06
4.51009e-06
9.62617e-06
9.89036e-06
1.00076e-05
4.03599e-06
3.84899e-06
3.98363e-06
9.93816e-06
9.9787e-06
1.04255e-05
1.0538e-05
3.67816e-06
3.99088e-06
9.55176e-06
1.04076e-05
9.9125e-06
1.08806e-05
1.00703e-05
1.01786e-05
1.05617e-05
4.40648e-06
4.35723e-06
1.01343e-05
1.05527e-05
1.05535e-05
4.11252e-06
3.94385e-06
4.15655e-06
1.06066e-05
1.0709e-05
1.10066e-05
1.10685e-05
3.9826e-06
4.29821e-06
1.00949e-05
1.10293e-05
1.0566e-05
1.14545e-05
1.07455e-05
1.09545e-05
1.11269e-05
4.26582e-06
4.30492e-06
1.0712e-05
1.1148e-05
1.10908e-05
4.24009e-06
4.13391e-06
4.40899e-06
1.11739e-05
1.12214e-05
1.16116e-05
1.15875e-05
4.29569e-06
4.75436e-06
1.07499e-05
1.16638e-05
1.11709e-05
1.20296e-05
1.12752e-05
1.24797e-05
1.16757e-05
4.24645e-06
4.45264e-06
1.12453e-05
1.17192e-05
1.16442e-05
4.46982e-06
4.39616e-06
4.905e-06
1.17273e-05
1.16805e-05
1.22114e-05
1.20759e-05
4.74726e-06
5.1947e-06
1.1279e-05
1.21324e-05
1.20104e-05
1.25359e-05
1.17833e-05
1.33812e-05
1.22143e-05
4.42347e-06
4.83344e-06
1.1764e-05
1.22743e-05
1.21916e-05
4.86907e-06
4.96298e-06
5.76443e-06
1.23666e-05
1.2164e-05
1.27481e-05
1.2432e-05
5.21432e-06
5.70834e-06
1.22909e-05
1.25757e-05
1.28998e-05
1.28331e-05
1.23161e-05
1.38097e-05
1.25591e-05
4.84166e-06
5.56237e-06
1.22902e-05
1.26628e-05
1.25239e-05
5.54943e-06
5.859e-06
6.99347e-06
1.29083e-05
1.25889e-05
1.34053e-05
1.30865e-05
5.74005e-06
6.69039e-06
1.31099e-05
1.3011e-05
1.39161e-05
1.3418e-05
1.27111e-05
1.39341e-05
1.31319e-05
5.66666e-06
6.63756e-06
1.26693e-05
1.32088e-05
1.31282e-05
6.62296e-06
7.19676e-06
8.46514e-06
1.35437e-05
1.32815e-05
1.4081e-05
1.41569e-05
6.89273e-06
8.39765e-06
1.41841e-05
1.35182e-05
1.48734e-05
1.40313e-05
1.32513e-05
1.44395e-05
1.38961e-05
6.80325e-06
8.27686e-06
1.326e-05
1.39637e-05
1.38993e-05
8.27628e-06
8.74853e-06
1.09846e-05
1.43611e-05
1.4477e-05
1.53649e-05
1.5455e-05
8.72765e-06
1.09404e-05
1.50924e-05
1.43036e-05
1.56933e-05
1.51897e-05
1.41721e-05
1.53679e-05
1.50219e-05
8.62055e-06
1.07447e-05
1.41778e-05
1.51281e-05
1.50434e-05
1.07104e-05
1.15352e-05
1.47431e-05
1.57308e-05
1.58816e-05
1.7095e-05
1.75872e-05
1.14805e-05
1.46101e-05
1.5908e-05
1.55115e-05
1.6895e-05
1.67797e-05
1.5366e-05
1.68564e-05
1.66707e-05
1.12258e-05
1.42909e-05
1.53896e-05
1.67509e-05
1.67153e-05
1.42272e-05
1.55036e-05
1.97776e-05
1.76394e-05
1.82166e-05
1.93273e-05
1.98568e-05
1.52946e-05
1.91937e-05
1.73478e-05
1.72927e-05
1.88677e-05
1.89528e-05
1.71882e-05
1.8624e-05
1.89199e-05
1.50512e-05
1.93569e-05
1.72408e-05
1.89684e-05
1.89695e-05
1.93988e-05
2.07996e-05
2.63313e-05
1.99383e-05
2.03428e-05
2.21408e-05
2.20171e-05
2.01838e-05
2.57198e-05
1.9457e-05
1.95614e-05
2.165e-05
2.16758e-05
1.95596e-05
2.17466e-05
2.17574e-05
2.03919e-05
2.58618e-05
1.96172e-05
2.1806e-05
2.18617e-05
2.59109e-05
2.76293e-05
3.41236e-05
2.29844e-05
2.27303e-05
2.56839e-05
2.52876e-05
2.70016e-05
3.35397e-05
2.25282e-05
2.25239e-05
2.54404e-05
2.54035e-05
2.26645e-05
2.54948e-05
2.59877e-05
2.71356e-05
3.37593e-05
2.27386e-05
2.54908e-05
2.5807e-05
3.41995e-05
3.55809e-05
4.25462e-05
2.66737e-05
2.62525e-05
3.0341e-05
2.96391e-05
3.5037e-05
4.20928e-05
2.64904e-05
2.64317e-05
3.00234e-05
2.98401e-05
2.7167e-05
3.00661e-05
3.06096e-05
3.52498e-05
4.22241e-05
2.69379e-05
3.01568e-05
3.05956e-05
4.22999e-05
4.40888e-05
5.06675e-05
3.18105e-05
3.0948e-05
3.6269e-05
3.50787e-05
4.36182e-05
5.02319e-05
3.13228e-05
3.11256e-05
3.52477e-05
3.52244e-05
3.17877e-05
3.53173e-05
3.55009e-05
4.37614e-05
5.05752e-05
3.19114e-05
3.57694e-05
3.58884e-05
5.00323e-05
5.20484e-05
5.77017e-05
3.7584e-05
3.64052e-05
4.10449e-05
4.01827e-05
5.16688e-05
5.76302e-05
3.6484e-05
3.65553e-05
4.00858e-05
4.03199e-05
3.67274e-05
4.02337e-05
4.03407e-05
5.20352e-05
5.78243e-05
3.71257e-05
4.05857e-05
4.06558e-05
5.76929e-05
5.89987e-05
6.48408e-05
4.22013e-05
4.14684e-05
4.60039e-05
4.55452e-05
5.8964e-05
6.48218e-05
4.13536e-05
4.15909e-05
4.54425e-05
4.56255e-05
4.16078e-05
4.56073e-05
4.56578e-05
5.9099e-05
6.48128e-05
4.18888e-05
4.57225e-05
4.585e-05
6.49286e-05
6.62143e-05
7.21068e-05
4.73926e-05
4.69922e-05
5.25173e-05
5.22556e-05
6.6187e-05
7.20582e-05
4.69024e-05
4.70616e-05
5.22091e-05
5.23089e-05
4.70891e-05
5.22935e-05
5.22989e-05
6.61753e-05
7.20858e-05
4.72548e-05
5.23868e-05
5.23898e-05
7.21116e-05
7.35623e-05
8.10768e-05
5.47506e-05
5.45297e-05
6.32856e-05
6.31684e-05
7.35136e-05
8.10427e-05
5.44962e-05
5.45832e-05
6.31571e-05
6.32214e-05
5.45606e-05
6.31786e-05
6.31801e-05
7.35466e-05
8.10881e-05
5.46304e-05
6.32596e-05
6.3205e-05
8.10591e-05
8.29267e-05
9.1837e-05
6.66506e-05
6.65601e-05
7.76883e-05
7.76502e-05
8.2899e-05
9.18278e-05
6.65517e-05
6.66095e-05
7.76435e-05
7.76815e-05
6.65686e-05
7.76506e-05
7.76551e-05
8.29411e-05
9.18509e-05
6.65844e-05
7.76907e-05
7.76552e-05
9.18332e-05
9.37459e-05
0.00010245
8.15243e-05
8.14957e-05
9.30693e-05
9.30542e-05
9.37389e-05
0.000102447
8.149e-05
8.15213e-05
9.30538e-05
9.30675e-05
8.15021e-05
9.3059e-05
9.30682e-05
9.3758e-05
0.000102455
8.14991e-05
9.30764e-05
9.30615e-05
0.000102451
0.000104195
0.000111734
9.68881e-05
9.6875e-05
0.00010757
0.000107558
0.000104193
0.000111732
9.68774e-05
9.68858e-05
0.000107566
0.000107564
9.68902e-05
0.000107573
0.000107575
0.000104199
0.000111732
9.68844e-05
0.000107578
0.000107574
0.000111734
0.000113046
0.000117053
0.000110574
0.000110562
0.000117208
0.000117196
0.000113044
0.000117051
0.000110573
0.000110567
0.00011721
0.000117198
0.000110581
0.000117217
0.000117218
0.000113044
0.000117053
0.00011058
0.000117221
0.000117219
0.000117059
0.000117586
0.000119134
0.000118694
0.000118681
0.000121557
0.000121544
0.000117585
0.000119134
0.000118697
0.000118683
0.000121562
0.000121545
0.000118704
0.000121569
0.000121568
0.000117585
0.000119132
0.000118706
0.000121572
0.000121571
0.000119138
0.000119332
0.000119859
0.000122116
0.000122102
0.00012308
0.000123066
0.000119332
0.000119859
0.000122122
0.000122104
0.000123086
0.000123067
0.000122127
0.000123094
0.00012309
0.00011933
0.000119856
0.000122131
0.000123096
0.000123095
0.000119862
0.00011991
0.000120101
0.000123248
0.000123234
0.000123529
0.000123515
0.00011991
0.000120101
0.000123256
0.000123236
0.000123536
0.000123516
0.000123259
0.000123544
0.000123539
0.000119907
0.000120098
0.000123264
0.000123545
0.000123545
0.000120104
0.000120099
0.000120185
0.000123577
0.000123563
0.000123636
0.000123623
0.000120099
0.000120185
0.000123584
0.000123563
0.000123643
0.000123623
0.000123586
0.000123651
0.000123645
0.000120095
0.000120181
0.000123592
0.000123651
0.000123651
0.000120187
0.000120169
0.000120126
0.000123639
0.000123626
0.000123636
0.000123622
0.000120168
0.000120124
0.000123646
0.000123626
0.000123643
0.000123622
0.000123648
0.00012365
0.000123644
0.000120165
0.000120121
0.000123654
0.00012365
0.00012365
0.000120126
0.000120104
0.00012013
0.000123635
0.000123622
0.000123641
0.000123629
0.000120102
0.00012013
0.000123642
0.000123621
0.000123648
0.000123628
0.000123644
0.000123657
0.00012365
0.000120099
0.000120129
0.000123649
0.000123657
0.000123656
0.000120135
0.000120124
0.000120196
0.000123647
0.000123635
0.000123646
0.000123633
0.000120125
0.000120194
0.000123654
0.000123634
0.000123653
0.000123631
0.000123655
0.000123661
0.000123653
0.000120124
0.000120187
0.000123661
0.000123659
0.000123658
0.000120191
0.000120163
0.000120098
0.000123641
0.000123628
0.000123642
0.00012363
0.000120159
0.000120103
0.000123648
0.000123626
0.000123648
0.000123628
0.000123649
0.000123657
0.00012365
0.000120151
0.000120105
0.000123654
0.000123656
0.000123656
0.000120113
0.000120118
0.00012016
0.000123645
0.000123633
0.000123644
0.000123631
0.000120123
0.000120151
0.000123652
0.000123631
0.000123651
0.00012363
0.000123652
0.000123659
0.000123651
0.000120123
0.000120142
0.000123659
0.000123658
0.000123658
0.000120148
0.000120116
0.000120182
0.000123643
0.00012363
0.000123644
0.000123631
0.000120107
0.000120192
0.00012365
0.000123629
0.00012365
0.000123629
0.000123651
0.000123659
0.000123651
0.000120098
0.000120193
0.000123657
0.000123657
0.000123657
0.000120196
0.000120189
0.000120087
0.000123644
0.000123631
0.000123644
0.000123632
0.000120193
0.000120104
0.00012365
0.000123629
0.00012365
0.000123631
0.000123651
0.000123661
0.000123653
0.00012019
0.00012012
0.000123656
0.00012366
0.000123658
0.000120108
0.0001201
0.000120115
0.000123646
0.000123633
0.000123643
0.00012363
0.00012013
0.000120092
0.00012365
0.000123631
0.000123649
0.000123629
0.000123654
0.000123658
0.000123649
0.000120144
0.000120089
0.00012366
0.000123656
0.000123655
0.000120096
0.000120076
0.000120183
0.000123644
0.000123633
0.000123645
0.00012363
0.000120078
0.000120126
0.000123649
0.000123631
0.00012365
0.000123629
0.000123653
0.000123658
0.00012365
0.0001201
0.0001201
0.000123658
0.000123656
0.000123656
0.000120147
0.000120135
0.000120197
0.000123644
0.000123631
0.000123645
0.000123632
0.000120083
0.000120183
0.00012365
0.00012363
0.00012365
0.000123628
0.000123649
0.000123662
0.000123653
0.000120076
0.000120122
0.000123655
0.000123658
0.000123658
0.000120196
0.000120186
0.000120155
0.000123644
0.000123631
0.000123648
0.000123634
0.000120134
0.000120199
0.00012365
0.000123629
0.000123651
0.000123629
0.000123651
0.000123661
0.000123652
0.000120085
0.000120131
0.000123656
0.000123658
0.000123658
0.000120194
0.000120167
0.000120118
0.000123646
0.000123631
0.000123646
0.000123635
0.000120172
0.000120191
0.00012365
0.000123628
0.000123652
0.000123631
0.000123651
0.000123662
0.000123654
0.000120089
0.000120153
0.000123656
0.000123658
0.000123659
0.000120176
0.00012014
0.000120106
0.000123647
0.000123633
0.000123645
0.000123635
0.000120182
0.000120173
0.000123652
0.00012363
0.00012365
0.00012363
0.000123652
0.000123664
0.000123654
0.000120107
0.000120176
0.000123657
0.000123661
0.000123659
0.000120179
0.00012012
0.000120097
0.000123647
0.000123635
0.000123645
0.000123632
0.000120181
0.000120128
0.000123652
0.00012363
0.000123649
0.000123629
0.000123653
0.00012366
0.000123653
0.000120133
0.000120163
0.000123657
0.000123658
0.000123659
0.000120191
0.000120098
0.000120105
0.000123647
0.000123634
0.000123644
0.000123632
0.000120146
0.000120131
0.00012365
0.000123629
0.000123649
0.000123629
0.000123654
0.00012366
0.000123651
0.00012012
0.000120162
0.00012366
0.000123657
0.000123655
0.000120097
0.000120074
0.00012016
0.000123645
0.000123632
0.000123646
0.000123634
0.000120138
0.000120166
0.000123649
0.000123628
0.000123651
0.000123631
0.000123651
0.000123663
0.000123653
0.000120115
0.00012017
0.000123657
0.000123658
0.000123657
0.000120145
0.000120114
0.00012016
0.000123644
0.000123633
0.000123649
0.000123634
0.000120177
0.000120127
0.000123648
0.000123629
0.000123653
0.00012363
0.000123651
0.000123662
0.000123654
0.000120126
0.000120149
0.000123655
0.000123658
0.000123661
0.000120215
0.000120127
0.000120113
0.000123648
0.000123634
0.000123646
0.000123633
0.000120146
0.000120132
0.000123652
0.000123629
0.000123649
0.000123631
0.000123653
0.000123661
0.000123651
0.000120097
0.000120193
0.000123659
0.00012366
0.000123657
0.000120131
0.000120077
0.000120192
0.000123646
0.000123634
0.000123647
0.000123634
0.000120137
0.000120188
0.000123649
0.000123629
0.000123651
0.000123631
0.000123654
0.00012366
0.000123651
0.000120143
0.000120195
0.00012366
0.000123661
0.000123656
0.000120099
0.000120152
0.000120175
0.000123647
0.000123633
0.000123646
0.000123634
0.000120179
0.000120171
0.00012365
0.000123631
0.00012365
0.00012363
0.000123651
0.000123664
0.000123653
0.000120189
0.000120139
0.000123657
0.000123657
0.000123656
0.000120165
0.000120173
0.000120139
0.000123646
0.000123634
0.000123647
0.000123634
0.000120178
0.000120114
0.00012365
0.000123632
0.000123651
0.000123629
0.000123651
0.000123662
0.000123654
0.000120159
0.00012009
0.000123656
0.000123658
0.000123658
0.000120193
0.000120155
0.000120104
0.000123647
0.000123634
0.000123647
0.000123633
0.000120138
0.000120095
0.000123649
0.000123629
0.000123651
0.00012363
0.000123653
0.00012366
0.000123653
0.000120104
0.000120107
0.000123655
0.000123658
0.00012366
0.000120166
0.000120117
0.000120107
0.000123648
0.000123633
0.000123646
0.000123633
0.000120076
0.000120151
0.000123652
0.00012363
0.000123649
0.00012363
0.000123653
0.00012366
0.000123652
0.000120074
0.000120166
0.000123658
0.000123657
0.000123657
0.00012013
0.000120081
0.000120145
0.000123646
0.000123631
0.000123648
0.000123638
0.000120104
0.000120212
0.000123651
0.000123629
0.000123648
0.00012363
0.000123653
0.000123662
0.000123651
0.000120121
0.000120186
0.000123659
0.000123658
0.000123656
0.000120109
0.0001201
0.000120205
0.000123647
0.000123636
0.000123647
0.000123633
0.000120192
0.000120138
0.000123649
0.00012363
0.00012365
0.000123629
0.000123653
0.00012366
0.000123652
0.000120168
0.000120143
0.000123657
0.000123658
0.000123656
0.000120108
0.000120163
0.000120186
0.000123647
0.000123637
0.000123647
0.000123632
0.000120156
0.000120107
0.000123648
0.000123629
0.000123652
0.000123628
0.000123652
0.000123659
0.000123653
0.000120125
0.000120119
0.000123656
0.000123657
0.000123656
0.000120115
0.00012019
0.000120113
0.000123647
0.000123633
0.000123648
0.000123635
0.000120086
0.000120138
0.00012365
0.000123629
0.000123649
0.000123629
0.000123652
0.00012366
0.000123652
0.000120089
0.000120117
0.000123657
0.000123657
0.000123656
0.000120129
0.000120131
0.00012013
0.000123647
0.000123633
0.000123648
0.000123635
0.000120099
0.000120145
0.000123649
0.000123628
0.00012365
0.00012363
0.000123652
0.000123661
0.000123651
0.000120083
0.00012014
0.000123657
0.000123658
0.000123655
0.000120139
0.000120118
0.000120187
0.000123647
0.000123635
0.000123647
0.000123633
0.000120103
0.000120155
0.000123649
0.000123629
0.00012365
0.00012363
0.000123653
0.00012366
0.000123651
0.000120099
0.000120169
0.000123656
0.000123658
0.000123656
0.00012014
0.000120157
0.000120201
0.000123647
0.000123633
0.000123648
0.000123633
0.00012011
0.00012017
0.000123649
0.000123629
0.000123652
0.000123631
0.000123651
0.000123661
0.000123652
0.000120123
0.000120188
0.000123656
0.000123658
0.000123656
0.000120146
0.000120178
0.000120181
0.000123647
0.000123632
0.000123647
0.000123633
0.000120126
0.000120178
0.000123649
0.000123628
0.000123652
0.000123632
0.000123651
0.000123661
0.000123652
0.00012015
0.000120189
0.000123656
0.000123658
0.000123657
0.000120157
0.000120177
0.000120171
0.000123647
0.000123632
0.000123647
0.000123633
0.000120136
0.000120183
0.000123651
0.00012363
0.000123649
0.00012363
0.000123652
0.000123661
0.000123652
0.000120164
0.000120183
0.000123655
0.000123659
0.000123657
0.000120158
0.000120163
0.000120193
0.000123646
0.000123633
0.000123648
0.000123633
0.000120143
0.000120194
0.00012365
0.00012363
0.00012365
0.00012363
0.000123652
0.000123661
0.000123652
0.00012016
0.000120187
0.000123656
0.000123657
0.000123656
0.000120146
0.000120171
0.000120193
0.000123646
0.000123633
0.000123649
0.000123634
0.000120164
0.00012019
0.000123649
0.000123629
0.000123651
0.000123632
0.000123651
0.000123661
0.000123652
0.00012016
0.000120191
0.000123656
0.000123656
0.000123655
0.00012014
0.000120185
0.000120169
0.000123647
0.000123633
0.000123648
0.000123634
0.000120182
0.000120165
0.00012365
0.000123631
0.00012365
0.00012363
0.000123651
0.00012366
0.000123652
0.000120174
0.000120177
0.000123656
0.000123657
0.000123656
0.000120139
0.000120177
0.00012015
0.000123648
0.000123634
0.000123647
0.000123633
0.000120172
0.000120149
0.000123651
0.00012363
0.000123649
0.000123629
0.000123651
0.00012366
0.000123651
0.000120174
0.000120166
0.000123656
0.000123657
0.000123655
0.00012013
0.000120163
0.000120151
0.000123647
0.000123633
0.000123647
0.000123634
0.000120157
0.000120171
0.00012365
0.000123629
0.000123649
0.000123629
0.000123651
0.00012366
0.000123651
0.000120163
0.00012018
0.000123656
0.000123657
0.000123655
0.000120122
0.000120161
0.000120172
0.000123647
0.000123633
0.000123647
0.000123634
0.000120169
0.000120183
0.000123649
0.000123629
0.000123649
0.000123629
0.000123651
0.00012366
0.000123651
0.000120164
0.000120187
0.000123655
0.000123657
0.000123655
0.00012013
0.000120171
0.000120183
0.000123647
0.000123633
0.000123647
0.000123633
0.000120177
0.000120175
0.000123649
0.000123629
0.000123649
0.000123629
0.000123651
0.00012366
0.000123651
0.000120175
0.000120175
0.000123655
0.000123657
0.000123655
0.000120143
0.000120172
0.000120183
0.000123647
0.000123633
0.000123647
0.000123633
0.000120172
0.000120177
0.000123649
0.000123629
0.000123649
0.000123629
0.000123651
0.00012366
0.00012365
0.000120175
0.000120159
0.000123656
0.000123656
0.000123655
0.000120138
0.000120165
0.000120186
0.000123648
0.000123634
0.000123646
0.000123632
0.000120171
0.000120181
0.000123649
0.000123629
0.000123649
0.000123629
0.000123651
0.00012366
0.00012365
0.000120167
0.000120149
0.000123656
0.000123655
0.000123654
0.000120122
0.000120162
0.000120194
0.000123646
0.000123633
0.000123646
0.000123633
0.000120175
0.000120176
0.000123649
0.000123629
0.000123649
0.000123628
0.000123651
0.00012366
0.00012365
0.000120159
0.000120144
0.000123656
0.000123655
0.000123654
0.00012012
0.000120174
0.000120188
0.000123647
0.000123633
0.000123646
0.000123633
0.000120175
0.00012017
0.000123649
0.000123629
0.000123649
0.000123628
0.000123651
0.00012366
0.00012365
0.000120152
0.000120161
0.000123656
0.000123655
0.000123654
0.000120129
0.000120186
0.000120158
0.000123649
0.000123635
0.000123645
0.000123631
0.00012017
0.000120178
0.00012365
0.00012363
0.000123649
0.000123628
0.000123652
0.000123659
0.00012365
0.000120155
0.000120189
0.000123656
0.000123656
0.000123654
0.000120141
0.000120172
0.000120138
0.000123648
0.000123634
0.000123645
0.000123632
0.000120166
0.000120188
0.000123651
0.00012363
0.000123648
0.000123628
0.000123652
0.000123659
0.00012365
0.000120166
0.000120189
0.000123656
0.000123656
0.000123654
0.000120137
0.000120156
0.000120146
0.000123649
0.000123635
0.000123646
0.000123632
0.000120168
0.000120188
0.000123652
0.000123631
0.000123648
0.000123629
0.000123653
0.00012366
0.00012365
0.000120181
0.000120164
0.000123657
0.000123656
0.000123654
0.000120126
0.000120159
0.000120169
0.00012365
0.000123636
0.000123645
0.000123632
0.000120176
0.000120178
0.000123653
0.000123633
0.000123649
0.000123629
0.000123654
0.00012366
0.00012365
0.000120172
0.000120153
0.000123658
0.000123655
0.000123654
0.000120126
0.000120166
0.000120185
0.000123651
0.000123638
0.000123647
0.000123634
0.000120176
0.000120171
0.000123654
0.000123634
0.00012365
0.00012363
0.000123656
0.000123661
0.000123652
0.000120158
0.000120179
0.00012366
0.000123657
0.000123655
0.000120136
0.000120163
0.000120195
0.000123654
0.000123641
0.000123651
0.000123637
0.000120173
0.000120174
0.000123657
0.000123637
0.000123653
0.000123633
0.000123659
0.000123664
0.000123655
0.000120163
0.000120188
0.000123663
0.00012366
0.000123658
0.000120142
0.000120173
0.000120193
0.000123659
0.000123646
0.000123656
0.000123642
0.000120174
0.000120179
0.000123661
0.000123642
0.000123659
0.000123639
0.000123664
0.000123669
0.00012366
0.000120178
0.000120169
0.000123667
0.000123666
0.000123664
0.000120134
0.000120187
0.000120174
0.000123668
0.000123654
0.000123666
0.000123654
0.000120176
0.000120183
0.00012367
0.000123651
0.000123669
0.000123649
0.000123672
0.00012368
0.000123671
0.000120175
0.00012015
0.000123676
0.000123676
0.000123675
0.000120133
0.000120185
0.000120152
0.000123683
0.00012367
0.000123682
0.000123672
0.000120183
0.000120178
0.000123685
0.000123666
0.000123687
0.000123668
0.000123687
0.000123698
0.000123687
0.000120162
0.000120158
0.000123692
0.000123694
0.000123693
0.000120136
0.000120163
0.000120133
0.000123659
0.000123648
0.000123879
0.000123868
0.000120178
0.000120137
0.000123664
0.000123643
0.000123885
0.000123862
0.000123663
0.000123897
0.000123883
0.000120161
0.000120132
0.000123669
0.000123893
0.000123891
0.000120128
0.000120302
0.000122757
0.000122746
0.000120302
0.000122763
0.000122741
0.00012094
0.000120937
0.000120944
0.00012276
0.000120296
0.000122768
7.20406e-05
1.18402e-05
4.90863e-05
4.90191e-05
5.4053e-07
2.81415e-06
1.61892e-06
3.06312e-05
5.14439e-07
2.82493e-06
3.07622e-05
1.57892e-06
2.25276e-06
9.52848e-07
1.71728e-06
1.03254e-06
1.34986e-05
9.32188e-07
1.51792e-05
1.07797e-05
1.30348e-05
1.04676e-06
1.35162e-05
1.03786e-06
1.51534e-05
2.86804e-05
2.88282e-05
2.8673e-05
2.8714e-05
2.88062e-05
2.89607e-05
2.88003e-05
5.04274e-07
5.37816e-07
1.34736e-05
3.18496e-06
5.23757e-07
6.5641e-07
1.3389e-05
1.10133e-05
1.32118e-05
5.79406e-07
1.36326e-05
4.96761e-07
3.19055e-06
5.59936e-07
1.35598e-05
6.17042e-07
1.30202e-06
1.4875e-06
2.20883e-06
1.50864e-06
1.69214e-06
1.22839e-06
1.83741e-05
1.14356e-06
2.08463e-05
1.71353e-05
1.92122e-05
1.24066e-06
1.848e-05
1.15795e-06
2.08103e-05
2.90672e-05
2.92254e-05
2.90652e-05
2.98164e-05
2.98845e-05
3.00553e-05
2.98983e-05
4.99193e-07