/*--------------------------------*- C++ -*----------------------------------*\
| =========                 |                                                 |
| \\      /  F ield         | OpenFOAM: The Open Source CFD Toolbox           |
|  \\    /   O peration     | Version:  v1906                                 |
|   \\  /    A nd           | Web:      www.OpenFOAM.com                      |
|    \\/     M anipulation  |                                                 |
\*---------------------------------------------------------------------------*/
FoamFile
{
    version     2.0;
    format      ascii;
    class       volScalarField;
    location    "150";
    object      p;
}
// * * * * * * * * * * * * * * * * * * * * * * * * * * * * * * * * * * * * * //

dimensions      [0 2 -2 0 0 0 0];


internalField   nonuniform List<scalar> 
171728
(
0.0035204
0.00351976
0.00351974
0.00352109
0.00348415
0.00348314
0.00348305
0.00348611
0.00344722
0.00344584
0.00344573
0.00344805
0.00340246
0.00340124
0.00340123
0.00340374
0.00335425
0.00335303
0.00335298
0.00335565
0.00330606
0.00330492
0.00330493
0.00330753
0.0032581
0.00325707
0.00325706
0.0032597
0.00321091
0.00320998
0.00320996
0.00321262
0.00316477
0.0031639
0.00316391
0.00316657
0.00311957
0.00311878
0.00311879
0.00312147
0.0030753
0.00307461
0.00307462
0.00307729
0.00303175
0.00303113
0.00303114
0.00303379
0.00298874
0.0029882
0.00298821
0.00299084
0.00294612
0.00294564
0.00294566
0.00294829
0.00290382
0.00290342
0.00290342
0.00290606
0.00286183
0.0028615
0.00286147
0.00286407
0.00282017
0.00281985
0.00281984
0.0028224
0.00277886
0.00277853
0.00277855
0.00278108
0.0027379
0.00273758
0.0027376
0.00274006
0.00269728
0.0026969
0.00269698
0.00269938
0.002657
0.00265674
0.00265671
0.00265905
0.00261706
0.00261681
0.00261678
0.00261906
0.00257748
0.00257719
0.00257719
0.00257949
0.00253822
0.00253793
0.00253796
0.00254031
0.00249931
0.00249905
0.00249903
0.00250145
0.00246082
0.00246055
0.00246054
0.00246306
0.00242279
0.00242254
0.00242253
0.00242495
0.00238553
0.00238526
0.00238527
0.00238769
0.00234939
0.00234921
0.0023492
0.00235159
0.00231412
0.00231403
0.00231402
0.00231633
0.00227901
0.00227905
0.00227906
0.0022812
0.00224343
0.00224345
0.00224345
0.00224559
0.00220704
0.00220703
0.00220703
0.00220916
0.00217033
0.00217029
0.00217029
0.00217238
0.0021338
0.00213368
0.00213368
0.00213573
0.00209768
0.00209745
0.00209745
0.00209946
0.00206181
0.00206155
0.00206155
0.00206356
0.00202603
0.00202584
0.00202584
0.00202787
0.00199038
0.00199027
0.00199027
0.00199233
0.00195478
0.00195472
0.00195472
0.00195679
0.00191919
0.00191914
0.00191914
0.00192122
0.00188359
0.00188356
0.00188356
0.00188564
0.001848
0.00184796
0.00184796
0.00185004
0.0018124
0.00181237
0.00181237
0.00181445
0.0017768
0.00177677
0.00177677
0.00177885
0.00174121
0.00174117
0.00174117
0.00174325
0.00170561
0.00170557
0.00170557
0.00170766
0.00167001
0.00166998
0.00166998
0.00167206
0.00163442
0.00163438
0.00163438
0.00163647
0.00159882
0.00159879
0.00159879
0.00160087
0.00156323
0.00156319
0.0015632
0.00156528
0.00152764
0.0015276
0.0015276
0.00152968
0.00149204
0.00149201
0.00149201
0.00149409
0.00145645
0.00145642
0.00145642
0.0014585
0.00142086
0.00142083
0.00142083
0.00142291
0.00138528
0.00138524
0.00138524
0.00138732
0.00134969
0.00134965
0.00134965
0.00135174
0.0013141
0.00131406
0.00131406
0.00131614
0.00127851
0.00127847
0.00127847
0.00128055
0.00124292
0.00124288
0.00124288
0.00124497
0.00120733
0.00120729
0.00120729
0.00120938
0.00117174
0.0011717
0.0011717
0.00117378
0.00113615
0.00113611
0.00113611
0.00113819
0.00110055
0.00110052
0.00110052
0.0011026
0.00106496
0.00106493
0.00106493
0.00106701
0.00102937
0.00102933
0.00102933
0.00103142
0.000993778
0.000993743
0.000993741
0.000995826
0.000958186
0.000958151
0.00095815
0.000960234
0.000922595
0.000922559
0.000922558
0.000924642
0.000887004
0.000886968
0.000886967
0.000889052
0.000851413
0.000851377
0.000851377
0.000853462
0.000815822
0.000815785
0.000815786
0.00081787
0.000780231
0.000780194
0.000780194
0.000782278
0.000744639
0.000744603
0.000744602
0.000746687
0.000709049
0.000709011
0.000709013
0.000711096
0.000673458
0.000673421
0.000673422
0.000675505
0.000637867
0.00063783
0.000637831
0.000639914
0.000602276
0.00060224
0.00060224
0.000604324
0.000566685
0.000566649
0.000566649
0.000568733
0.000531094
0.000531057
0.000531057
0.000533142
0.000495504
0.000495467
0.000495467
0.00049755
0.000459913
0.000459876
0.000459878
0.00046196
0.000424322
0.000424285
0.000424287
0.000426369
0.000388732
0.000388695
0.000388696
0.000390778
0.000353142
0.000353105
0.000353106
0.000355187
0.000317553
0.000317516
0.000317516
0.000319597
0.000281963
0.000281927
0.000281927
0.000284006
0.000246374
0.000246338
0.00024634
0.000248415
0.000210783
0.000210748
0.00021075
0.00021282
0.000175189
0.000175156
0.000175157
0.00017722
0.000139591
0.00013956
0.00013956
0.000141612
0.000103978
0.000103958
0.000103957
0.00010599
6.83816e-05
6.83477e-05
6.83468e-05
7.03507e-05
3.36577e-05
3.32349e-05
3.32316e-05
3.49349e-05
4.68464e-06
4.16251e-06
4.16391e-06
3.94034e-06
0.00352614
0.00352442
0.00352446
0.00352616
0.00352443
0.00352451
0.00352922
0.00352923
0.00352925
0.00352924
0.00352448
0.0035244
0.00352618
0.0035245
0.00352444
0.00352615
0.00352106
0.00349058
0.00351976
0.00351975
0.00349217
0.00349219
0.00352107
0.00349057
0.00351977
0.00351976
0.00349214
0.00349224
0.00351971
0.00349217
0.00349233
0.00352111
0.00349058
0.00351976
0.00349228
0.00349216
0.00349061
0.00348612
0.00345344
0.00348315
0.00348312
0.00345547
0.00345549
0.00348611
0.00345342
0.00348318
0.00348312
0.00345545
0.00345552
0.00348311
0.00345548
0.00345555
0.0034861
0.0034534
0.00348313
0.00345557
0.00345545
0.00345341
0.00344809
0.00340995
0.00344581
0.00344579
0.0034129
0.00341294
0.00344807
0.00340994
0.00344583
0.00344578
0.0034129
0.00341288
0.00344575
0.0034129
0.00341289
0.00344805
0.00340993
0.00344582
0.00341291
0.00341289
0.00340994
0.00340374
0.00336202
0.00340125
0.00340121
0.00336509
0.00336512
0.00340374
0.00336201
0.00340122
0.00340124
0.00336509
0.00336509
0.00340122
0.00336508
0.00336508
0.00340375
0.00336202
0.00340122
0.00336512
0.00336511
0.00336202
0.00335566
0.00331383
0.00335301
0.00335299
0.00331692
0.00331692
0.00335565
0.00331383
0.003353
0.00335301
0.00331692
0.00331691
0.00335301
0.00331693
0.0033169
0.00335566
0.00331383
0.00335299
0.00331691
0.00331691
0.00331383
0.00330752
0.00326594
0.00330491
0.00330491
0.003269
0.003269
0.00330752
0.00326595
0.00330491
0.00330492
0.00326902
0.00326901
0.0033049
0.00326901
0.00326898
0.00330754
0.00326595
0.00330491
0.003269
0.003269
0.00326593
0.00325971
0.00321872
0.00325706
0.00325707
0.00322162
0.00322162
0.00325972
0.00321871
0.00325705
0.00325706
0.00322164
0.00322163
0.00325706
0.00322162
0.00322161
0.00325972
0.00321872
0.00325705
0.00322163
0.00322162
0.00321871
0.00321262
0.00317253
0.00320996
0.00320996
0.00317532
0.00317532
0.00321262
0.00317253
0.00320995
0.00320996
0.00317534
0.00317533
0.00320997
0.00317534
0.00317534
0.00321263
0.00317253
0.00320996
0.00317533
0.00317533
0.00317253
0.00316658
0.00312729
0.00316391
0.00316391
0.00312997
0.00312997
0.00316657
0.00312729
0.00316389
0.00316392
0.00312998
0.00312998
0.00316389
0.00312997
0.00312996
0.00316658
0.0031273
0.0031639
0.00312997
0.00312996
0.00312729
0.00312147
0.00308298
0.00311879
0.00311879
0.00308558
0.00308558
0.00312147
0.00308299
0.00311879
0.00311879
0.00308558
0.00308558
0.00311878
0.00308558
0.00308558
0.00312148
0.00308299
0.00311879
0.00308558
0.00308558
0.003083
0.00307727
0.00303943
0.00307461
0.00307461
0.00304195
0.00304195
0.00307728
0.00303943
0.00307461
0.00307461
0.00304195
0.00304195
0.0030746
0.00304195
0.00304194
0.00307728
0.00303941
0.00307461
0.00304195
0.00304194
0.00303941
0.00303381
0.00299641
0.00303113
0.00303113
0.0029989
0.0029989
0.00303381
0.0029964
0.00303113
0.00303114
0.00299891
0.00299891
0.00303113
0.00299891
0.0029989
0.0030338
0.00299641
0.00303114
0.0029989
0.0029989
0.00299639
0.00299086
0.0029538
0.00298821
0.0029882
0.00295626
0.00295626
0.00299085
0.00295379
0.0029882
0.00298821
0.00295626
0.00295626
0.00298821
0.00295626
0.00295626
0.00299086
0.0029538
0.00298821
0.00295626
0.00295626
0.0029538
0.00294829
0.0029115
0.00294566
0.00294565
0.00291395
0.00291394
0.00294828
0.00291151
0.00294566
0.00294566
0.00291395
0.00291395
0.00294565
0.00291394
0.00291396
0.00294829
0.0029115
0.00294566
0.00291395
0.00291396
0.00291152
0.00290605
0.00286948
0.00290342
0.00290342
0.00287194
0.00287192
0.00290604
0.00286948
0.00290342
0.00290343
0.00287194
0.00287193
0.00290342
0.00287191
0.00287192
0.00290605
0.00286947
0.00290343
0.00287192
0.00287192
0.00286947
0.00286408
0.00282779
0.00286148
0.00286149
0.00283023
0.00283021
0.00286407
0.00282778
0.00286148
0.00286148
0.00283022
0.00283022
0.00286148
0.0028302
0.00283021
0.00286407
0.00282776
0.00286147
0.00283022
0.00283022
0.00282776
0.00282244
0.00278637
0.00281984
0.00281984
0.00278885
0.00278884
0.00282242
0.00278642
0.00281983
0.00281984
0.00278886
0.00278885
0.00281984
0.00278883
0.00278884
0.0028224
0.00278638
0.00281983
0.00278884
0.00278884
0.00278639
0.00278107
0.0027453
0.00277854
0.00277854
0.00274781
0.00274778
0.00278109
0.00274534
0.00277855
0.00277856
0.00274782
0.00274779
0.00277855
0.00274781
0.0027478
0.00278108
0.00274532
0.00277855
0.0027478
0.0027478
0.00274532
0.00274005
0.00270457
0.0027376
0.00273757
0.00270711
0.00270707
0.00274008
0.00270448
0.00273762
0.00273759
0.00270711
0.00270712
0.00273759
0.00270704
0.00270708
0.00274006
0.00270462
0.00273759
0.00270711
0.0027071
0.00270458
0.00269939
0.00266421
0.00269699
0.00269696
0.00266672
0.00266674
0.0026993
0.00266424
0.00269701
0.002697
0.00266676
0.00266672
0.00269696
0.00266674
0.00266674
0.0026994
0.00266415
0.00269698
0.00266674
0.00266674
0.00266419
0.00265902
0.00262412
0.00265668
0.00265671
0.00262672
0.00262675
0.00265909
0.0026242
0.0026567
0.00265668
0.00262664
0.00262674
0.00265672
0.00262677
0.00262674
0.00265903
0.0026242
0.00265671
0.00262672
0.00262673
0.00262417
0.00261905
0.00258457
0.00261678
0.00261679
0.00258707
0.0025871
0.0026191
0.00258456
0.0026167
0.00261679
0.00258708
0.00258704
0.00261679
0.00258706
0.00258706
0.00261909
0.00258452
0.00261678
0.00258705
0.00258705
0.00258453
0.00257952
0.00254532
0.0025772
0.00257723
0.00254773
0.00254769
0.00257951
0.00254523
0.00257723
0.00257718
0.00254776
0.00254774
0.0025772
0.00254771
0.00254774
0.00257948
0.0025453
0.00257719
0.00254773
0.00254773
0.00254531
0.00254032
0.00250641
0.00253795
0.0025379
0.00250873
0.00250871
0.00254023
0.00250642
0.00253797
0.00253797
0.00250874
0.00250874
0.00253795
0.00250874
0.00250875
0.0025403
0.00250641
0.00253796
0.00250873
0.00250875
0.00250643
0.00250145
0.00246796
0.00249904
0.00249903
0.00247015
0.00247015
0.00250146
0.00246795
0.00249904
0.00249903
0.00247014
0.00247012
0.00249905
0.00247013
0.00247012
0.00250145
0.00246793
0.00249904
0.00247011
0.00247012
0.00246795
0.00246305
0.00242991
0.00246058
0.00246058
0.00243202
0.00243201
0.00246304
0.00242992
0.00246057
0.00246055
0.002432
0.002432
0.00246056
0.002432
0.00243197
0.00246303
0.0024299
0.00246056
0.00243199
0.00243198
0.00242985
0.00242504
0.00239249
0.00242256
0.00242255
0.00239449
0.00239447
0.00242505
0.00239249
0.00242253
0.00242253
0.00239448
0.00239447
0.00242248
0.00239447
0.00239441
0.00242503
0.00239249
0.00242249
0.00239447
0.00239441
0.00239242
0.00238772
0.00235614
0.00238527
0.00238527
0.00235808
0.0023581
0.00238773
0.00235619
0.00238527
0.00238527
0.00235809
0.00235812
0.00238522
0.00235811
0.00235813
0.00238774
0.00235619
0.00238522
0.00235811
0.00235813
0.00235621
0.00235151
0.00232083
0.00234916
0.00234919
0.00232275
0.00232276
0.00235156
0.00232084
0.00234917
0.0023492
0.00232275
0.00232276
0.00234923
0.00232278
0.00232281
0.00235156
0.00232083
0.00234923
0.00232277
0.0023228
0.00232089
0.00231628
0.0022858
0.00231401
0.00231402
0.00228783
0.00228782
0.00231628
0.00228579
0.00231402
0.00231402
0.00228784
0.00228783
0.00231405
0.00228782
0.00228783
0.00231628
0.00228579
0.00231405
0.00228783
0.00228783
0.00228579
0.00228121
0.0022503
0.00227906
0.00227905
0.00225244
0.00225244
0.00228119
0.0022503
0.00227907
0.00227905
0.00225245
0.00225244
0.00227905
0.00225244
0.00225244
0.0022812
0.0022503
0.00227905
0.00225244
0.00225244
0.00225029
0.0022456
0.00221397
0.00224346
0.00224346
0.00221619
0.0022162
0.0022456
0.00221397
0.00224346
0.00224345
0.0022162
0.00221619
0.00224345
0.00221619
0.00221619
0.00224559
0.00221397
0.00224345
0.00221619
0.00221619
0.00221397
0.00220917
0.00217721
0.00220703
0.00220704
0.00217948
0.00217948
0.00220917
0.00217721
0.00220704
0.00220703
0.00217948
0.00217948
0.00220704
0.00217948
0.00217948
0.00220916
0.00217721
0.00220703
0.00217948
0.00217948
0.00217721
0.00217238
0.00214053
0.00217029
0.00217029
0.0021428
0.0021428
0.00217238
0.00214053
0.00217029
0.00217029
0.00214281
0.00214281
0.00217029
0.0021428
0.00214281
0.00217238
0.00214053
0.00217029
0.00214281
0.00214281
0.00214053
0.00213572
0.00210423
0.00213368
0.00213368
0.00210647
0.00210647
0.00213572
0.00210423
0.00213368
0.00213368
0.00210647
0.00210647
0.00213368
0.00210647
0.00210647
0.00213573
0.00210423
0.00213368
0.00210647
0.00210647
0.00210423
0.00209946
0.00206831
0.00209745
0.00209745
0.0020705
0.0020705
0.00209946
0.00206831
0.00209745
0.00209745
0.0020705
0.0020705
0.00209745
0.0020705
0.0020705
0.00209946
0.00206831
0.00209745
0.0020705
0.0020705
0.00206831
0.00206356
0.0020326
0.00206155
0.00206155
0.00203474
0.00203474
0.00206356
0.0020326
0.00206155
0.00206155
0.00203474
0.00203474
0.00206155
0.00203474
0.00203474
0.00206356
0.0020326
0.00206155
0.00203474
0.00203474
0.0020326
0.00202787
0.00199705
0.00202584
0.00202584
0.00199915
0.00199915
0.00202787
0.00199705
0.00202584
0.00202584
0.00199915
0.00199915
0.00202584
0.00199915
0.00199915
0.00202787
0.00199705
0.00202584
0.00199915
0.00199915
0.00199705
0.00199233
0.00196152
0.00199027
0.00199027
0.00196361
0.00196361
0.00199233
0.00196152
0.00199027
0.00199027
0.00196361
0.00196361
0.00199027
0.00196361
0.00196361
0.00199233
0.00196152
0.00199027
0.00196361
0.0019636
0.00196152
0.00195679
0.00192596
0.00195472
0.00195472
0.00192804
0.00192804
0.00195679
0.00192596
0.00195472
0.00195472
0.00192804
0.00192804
0.00195472
0.00192804
0.00192804
0.00195679
0.00192596
0.00195471
0.00192804
0.00192804
0.00192596
0.00192122
0.00189037
0.00191914
0.00191914
0.00189245
0.00189245
0.00192122
0.00189037
0.00191914
0.00191914
0.00189245
0.00189245
0.00191914
0.00189245
0.00189245
0.00192122
0.00189037
0.00191914
0.00189245
0.00189245
0.00189037
0.00188564
0.00185478
0.00188356
0.00188356
0.00185686
0.00185686
0.00188564
0.00185478
0.00188356
0.00188356
0.00185686
0.00185686
0.00188356
0.00185686
0.00185686
0.00188564
0.00185478
0.00188356
0.00185686
0.00185686
0.00185478
0.00185004
0.00181919
0.00184796
0.00184796
0.00182127
0.00182127
0.00185004
0.00181919
0.00184796
0.00184796
0.00182127
0.00182127
0.00184796
0.00182127
0.00182127
0.00185004
0.00181919
0.00184796
0.00182127
0.00182127
0.00181919
0.00181445
0.00178359
0.00181237
0.00181237
0.00178567
0.00178567
0.00181445
0.00178359
0.00181237
0.00181237
0.00178567
0.00178567
0.00181237
0.00178567
0.00178567
0.00181445
0.00178359
0.00181237
0.00178567
0.00178567
0.00178359
0.00177885
0.00174799
0.00177677
0.00177677
0.00175007
0.00175007
0.00177885
0.00174799
0.00177677
0.00177677
0.00175007
0.00175007
0.00177677
0.00175007
0.00175007
0.00177885
0.00174799
0.00177677
0.00175007
0.00175007
0.00174799
0.00174325
0.00171239
0.00174117
0.00174117
0.00171447
0.00171447
0.00174325
0.00171239
0.00174117
0.00174117
0.00171447
0.00171447
0.00174117
0.00171447
0.00171447
0.00174325
0.00171239
0.00174117
0.00171447
0.00171447
0.00171239
0.00170766
0.0016768
0.00170557
0.00170557
0.00167888
0.00167888
0.00170766
0.0016768
0.00170557
0.00170557
0.00167888
0.00167888
0.00170557
0.00167888
0.00167888
0.00170766
0.0016768
0.00170557
0.00167888
0.00167888
0.0016768
0.00167206
0.0016412
0.00166998
0.00166998
0.00164328
0.00164328
0.00167206
0.0016412
0.00166998
0.00166998
0.00164328
0.00164328
0.00166998
0.00164328
0.00164328
0.00167206
0.0016412
0.00166998
0.00164328
0.00164328
0.0016412
0.00163647
0.00160561
0.00163438
0.00163438
0.00160769
0.00160769
0.00163647
0.00160561
0.00163438
0.00163438
0.00160769
0.00160769
0.00163438
0.00160769
0.00160769
0.00163647
0.00160561
0.00163438
0.00160769
0.00160769
0.00160561
0.00160087
0.00157001
0.00159879
0.00159879
0.00157209
0.00157209
0.00160087
0.00157001
0.00159879
0.00159879
0.00157209
0.00157209
0.00159879
0.00157209
0.00157209
0.00160087
0.00157001
0.00159879
0.00157209
0.00157209
0.00157001
0.00156528
0.00153442
0.0015632
0.0015632
0.0015365
0.0015365
0.00156528
0.00153442
0.0015632
0.0015632
0.0015365
0.0015365
0.00156319
0.0015365
0.0015365
0.00156528
0.00153442
0.00156319
0.0015365
0.0015365
0.00153442
0.00152968
0.00149883
0.0015276
0.0015276
0.00150091
0.00150091
0.00152968
0.00149883
0.0015276
0.0015276
0.00150091
0.0015009
0.0015276
0.00150091
0.00150091
0.00152968
0.00149883
0.0015276
0.00150091
0.00150091
0.00149883
0.00149409
0.00146324
0.00149201
0.00149201
0.00146532
0.00146532
0.00149409
0.00146323
0.00149201
0.00149201
0.00146532
0.00146532
0.00149201
0.00146531
0.00146532
0.00149409
0.00146324
0.00149201
0.00146531
0.00146532
0.00146324
0.0014585
0.00142765
0.00145642
0.00145642
0.00142973
0.00142973
0.0014585
0.00142765
0.00145642
0.00145642
0.00142973
0.00142973
0.00145642
0.00142973
0.00142973
0.0014585
0.00142765
0.00145642
0.00142973
0.00142973
0.00142765
0.00142291
0.00139206
0.00142083
0.00142083
0.00139414
0.00139414
0.00142291
0.00139206
0.00142083
0.00142083
0.00139414
0.00139414
0.00142083
0.00139414
0.00139414
0.00142291
0.00139206
0.00142083
0.00139414
0.00139414
0.00139206
0.00138732
0.00135647
0.00138524
0.00138524
0.00135855
0.00135855
0.00138732
0.00135647
0.00138524
0.00138524
0.00135855
0.00135855
0.00138524
0.00135855
0.00135855
0.00138732
0.00135647
0.00138524
0.00135855
0.00135855
0.00135647
0.00135174
0.00132088
0.00134965
0.00134965
0.00132296
0.00132296
0.00135173
0.00132088
0.00134965
0.00134965
0.00132296
0.00132296
0.00134965
0.00132296
0.00132296
0.00135173
0.00132088
0.00134965
0.00132296
0.00132296
0.00132088
0.00131614
0.00128529
0.00131406
0.00131406
0.00128737
0.00128737
0.00131614
0.00128529
0.00131406
0.00131406
0.00128737
0.00128737
0.00131406
0.00128737
0.00128737
0.00131614
0.00128529
0.00131406
0.00128737
0.00128737
0.00128529
0.00128056
0.0012497
0.00127847
0.00127847
0.00125178
0.00125178
0.00128056
0.0012497
0.00127847
0.00127847
0.00125178
0.00125178
0.00127847
0.00125178
0.00125178
0.00128056
0.0012497
0.00127847
0.00125178
0.00125178
0.0012497
0.00124497
0.00121411
0.00124288
0.00124288
0.00121619
0.00121619
0.00124497
0.00121411
0.00124288
0.00124288
0.00121619
0.00121619
0.00124288
0.00121619
0.00121619
0.00124496
0.00121411
0.00124288
0.00121619
0.00121619
0.00121411
0.00120937
0.00117852
0.00120729
0.00120729
0.0011806
0.0011806
0.00120937
0.00117852
0.00120729
0.00120729
0.0011806
0.0011806
0.00120729
0.0011806
0.0011806
0.00120937
0.00117852
0.00120729
0.0011806
0.0011806
0.00117852
0.00117378
0.00114293
0.0011717
0.0011717
0.00114501
0.00114501
0.00117378
0.00114293
0.0011717
0.0011717
0.00114501
0.00114501
0.0011717
0.00114501
0.00114501
0.00117378
0.00114293
0.0011717
0.00114501
0.00114501
0.00114293
0.00113819
0.00110734
0.00113611
0.00113611
0.00110942
0.00110942
0.00113819
0.00110734
0.00113611
0.00113611
0.00110942
0.00110942
0.00113611
0.00110942
0.00110942
0.00113819
0.00110734
0.00113611
0.00110942
0.00110942
0.00110734
0.0011026
0.00107175
0.00110052
0.00110052
0.00107382
0.00107382
0.0011026
0.00107174
0.00110052
0.00110052
0.00107383
0.00107383
0.00110052
0.00107382
0.00107383
0.0011026
0.00107175
0.00110052
0.00107383
0.00107383
0.00107175
0.00106701
0.00103615
0.00106493
0.00106493
0.00103823
0.00103823
0.00106701
0.00103615
0.00106493
0.00106493
0.00103823
0.00103823
0.00106493
0.00103823
0.00103823
0.00106701
0.00103615
0.00106493
0.00103823
0.00103823
0.00103615
0.00103142
0.00100056
0.00102933
0.00102933
0.00100264
0.00100264
0.00103142
0.00100056
0.00102934
0.00102934
0.00100264
0.00100264
0.00102934
0.00100264
0.00100264
0.00103142
0.00100056
0.00102934
0.00100264
0.00100264
0.00100056
0.000995823
0.000964968
0.000993743
0.000993744
0.000967048
0.000967047
0.000995825
0.000964969
0.000993741
0.000993743
0.000967048
0.000967047
0.000993742
0.000967047
0.000967048
0.000995824
0.000964969
0.000993743
0.000967048
0.000967049
0.00096497
0.000960231
0.000929378
0.00095815
0.000958151
0.000931457
0.000931456
0.000960233
0.000929377
0.000958149
0.000958151
0.000931457
0.000931455
0.00095815
0.000931455
0.000931457
0.000960234
0.000929377
0.000958151
0.000931456
0.000931456
0.000929378
0.000924642
0.000893787
0.000922558
0.000922558
0.000895867
0.000895866
0.000924642
0.000893787
0.000922559
0.000922558
0.000895865
0.000895865
0.000922559
0.000895865
0.000895866
0.000924642
0.000893786
0.00092256
0.000895865
0.000895865
0.000893786
0.000889051
0.000858195
0.000886968
0.000886968
0.000860276
0.000860275
0.000889051
0.000858196
0.000886967
0.000886967
0.000860275
0.000860275
0.000886969
0.000860274
0.000860274
0.000889051
0.000858195
0.000886969
0.000860275
0.000860274
0.000858196
0.000853459
0.000822604
0.000851378
0.000851378
0.000824684
0.000824683
0.00085346
0.000822604
0.000851376
0.000851376
0.000824684
0.000824684
0.000851378
0.000824683
0.000824683
0.00085346
0.000822604
0.000851379
0.000824684
0.000824683
0.000822605
0.000817867
0.000787014
0.000815787
0.000815787
0.000789093
0.000789092
0.000817868
0.000787013
0.000815784
0.000815785
0.000789094
0.000789094
0.000815786
0.000789093
0.000789093
0.000817868
0.000787013
0.000815786
0.000789092
0.000789091
0.000787013
0.000782277
0.000751422
0.000780196
0.000780195
0.000753501
0.000753501
0.000782277
0.000751422
0.000780194
0.000780194
0.000753503
0.000753503
0.000780194
0.000753502
0.000753502
0.000782276
0.000751422
0.000780194
0.000753502
0.000753502
0.000751422
0.000746686
0.00071583
0.000744604
0.000744604
0.00071791
0.000717911
0.000746686
0.00071583
0.000744604
0.000744604
0.000717911
0.000717911
0.000744604
0.000717911
0.000717911
0.000746685
0.00071583
0.000744603
0.000717912
0.000717911
0.000715831
0.000711094
0.00068024
0.000709012
0.000709012
0.00068232
0.00068232
0.000711094
0.00068024
0.000709012
0.000709012
0.000682321
0.000682321
0.000709013
0.00068232
0.000682319
0.000711094
0.000680239
0.000709014
0.00068232
0.000682319
0.00068024
0.000675502
0.00064465
0.00067342
0.000673421
0.00064673
0.00064673
0.000675502
0.00064465
0.000673421
0.000673421
0.00064673
0.00064673
0.000673422
0.000646729
0.000646729
0.000675503
0.000644649
0.000673423
0.000646729
0.000646728
0.00064465
0.000639912
0.000609059
0.00063783
0.00063783
0.00061114
0.000611139
0.000639912
0.000609059
0.000637831
0.000637831
0.000611139
0.000611139
0.000637831
0.000611138
0.000611138
0.000639912
0.000609058
0.000637832
0.000611139
0.000611137
0.000609059
0.000604322
0.000573468
0.00060224
0.00060224
0.000575548
0.000575548
0.000604322
0.000573467
0.000602241
0.000602241
0.000575548
0.000575547
0.00060224
0.000575547
0.000575547
0.000604322
0.000573467
0.000602241
0.000575547
0.000575546
0.000573469
0.000568731
0.000537876
0.000566649
0.000566648
0.000539957
0.000539957
0.00056873
0.000537877
0.00056665
0.00056665
0.000539957
0.000539956
0.00056665
0.000539956
0.000539956
0.000568731
0.000537876
0.00056665
0.000539956
0.000539956
0.000537877
0.000533139
0.000502286
0.000531058
0.000531057
0.000504366
0.000504366
0.000533139
0.000502286
0.000531059
0.000531059
0.000504366
0.000504366
0.000531059
0.000504366
0.000504365
0.000533139
0.000502286
0.000531058
0.000504366
0.000504365
0.000502286
0.000497548
0.000466695
0.000495467
0.000495467
0.000468775
0.000468775
0.000497548
0.000466695
0.000495467
0.000495468
0.000468775
0.000468775
0.000495468
0.000468775
0.000468774
0.000497548
0.000466695
0.000495467
0.000468775
0.000468774
0.000466696
0.000461958
0.000431103
0.000459877
0.000459877
0.000433183
0.000433184
0.000461957
0.000431104
0.000459876
0.000459876
0.000433183
0.000433184
0.000459877
0.000433183
0.000433183
0.000461958
0.000431104
0.000459878
0.000433183
0.000433183
0.000431105
0.000426367
0.000395513
0.000424286
0.000424286
0.000397593
0.000397593
0.000426366
0.000395514
0.000424285
0.000424286
0.000397593
0.000397593
0.000424286
0.000397593
0.000397592
0.000426367
0.000395513
0.000424288
0.000397592
0.000397592
0.000395515
0.000390775
0.000359924
0.000388695
0.000388695
0.000362004
0.000362004
0.000390775
0.000359924
0.000388695
0.000388695
0.000362003
0.000362003
0.000388696
0.000362003
0.000362002
0.000390776
0.000359923
0.000388697
0.000362002
0.000362002
0.000359925
0.000355185
0.000324336
0.000353107
0.000353106
0.000326413
0.000326413
0.000355185
0.000324335
0.000353105
0.000353105
0.000326414
0.000326414
0.000353106
0.000326413
0.000326412
0.000355185
0.000324334
0.000353107
0.000326412
0.000326412
0.000324335
0.000319596
0.000288747
0.000317518
0.000317517
0.000290823
0.000290823
0.000319595
0.000288746
0.000317517
0.000317516
0.000290824
0.000290824
0.000317517
0.000290823
0.000290823
0.000319595
0.000288746
0.000317517
0.000290824
0.000290823
0.000288747
0.000284005
0.000253158
0.000281928
0.000281928
0.000255234
0.000255234
0.000284004
0.000253157
0.000281928
0.000281928
0.000255234
0.000255234
0.000281928
0.000255233
0.000255233
0.000284004
0.000253158
0.000281928
0.000255235
0.000255233
0.000253158
0.000248413
0.000217568
0.00024634
0.000246339
0.000219642
0.000219643
0.000248412
0.000217568
0.000246339
0.000246338
0.000219643
0.000219643
0.000246339
0.000219642
0.000219642
0.000248413
0.000217569
0.000246339
0.000219642
0.000219642
0.000217569
0.000212818
0.000181978
0.000210749
0.000210749
0.000184049
0.00018405
0.000212817
0.000181979
0.000210748
0.000210748
0.000184049
0.000184049
0.000210749
0.000184049
0.000184048
0.000212819
0.000181977
0.000210749
0.000184048
0.000184049
0.000181979
0.000177218
0.000146386
0.000175156
0.000175156
0.000148453
0.000148453
0.000177218
0.000146387
0.000175156
0.000175156
0.000148452
0.000148453
0.000175156
0.000148452
0.000148452
0.000177218
0.000146386
0.000175157
0.000148452
0.000148452
0.000146387
0.00014161
0.00011079
0.00013956
0.00013956
0.00011285
0.00011285
0.00014161
0.00011079
0.00013956
0.00013956
0.000112849
0.00011285
0.000139561
0.000112849
0.000112849
0.00014161
0.00011079
0.000139561
0.000112849
0.000112849
0.000110791
0.000105989
7.5185e-05
0.000103959
0.000103959
7.72352e-05
7.72349e-05
0.000105989
7.51856e-05
0.000103957
0.000103958
7.72344e-05
7.72336e-05
0.000103958
7.72338e-05
7.72326e-05
0.000105988
7.51841e-05
0.000103958
7.72333e-05
7.72333e-05
7.51849e-05
7.03512e-05
3.97135e-05
6.83494e-05
6.83483e-05
4.18005e-05
4.18021e-05
7.0351e-05
3.97144e-05
6.83473e-05
6.83466e-05
4.18e-05
4.17979e-05
6.83468e-05
4.18003e-05
4.17971e-05
7.03504e-05
3.97108e-05
6.83471e-05
4.17972e-05
4.17967e-05
3.97111e-05
3.49381e-05
7.15781e-06
3.32364e-05
3.32367e-05
9.81891e-06
9.81795e-06
3.49384e-05
7.15718e-06
3.32351e-05
3.32321e-05
9.81821e-06
9.81384e-06
3.3231e-05
9.81676e-06
9.81218e-06
3.4935e-05
7.15423e-06
3.32315e-05
9.81545e-06
9.81488e-06
7.15327e-06
3.94325e-06
4.16802e-06
4.16378e-06
3.9436e-06
4.15934e-06
4.15901e-06
4.68392e-06
4.68273e-06
4.68237e-06
4.16185e-06
3.9413e-06
4.15984e-06
0.003533
0.00353639
0.00353496
0.00353496
0.00355888
0.00353735
0.00356496
0.00353641
0.00355886
0.00353738
0.00353642
0.00356497
0.00354697
0.00356842
0.00356815
0.00350418
0.00351828
0.00352208
0.0034964
0.00349514
0.00349985
0.00350422
0.00351826
0.0035221
0.00349633
0.00352039
0.00352041
0.0035204
0.00349301
0.003493
0.00349302
0.00349301
0.00350364
0.00351632
0.00352098
0.00351117
0.00352325
0.00350084
0.00351145
0.00349523
0.0034999
0.00350368
0.00352098
0.00351635
0.00351126
0.00352328
0.00351149
0.00350079
0.00352206
0.00352211
0.00350826
0.00350064
0.0035007
0.00347701
0.0034909
0.00349068
0.00347515
0.00348815
0.00347427
0.00347698
0.00349089
0.00349064
0.00347516
0.00348415
0.00348415
0.00348414
0.00345712
0.0034571
0.0034571
0.00345711
0.00347464
0.00348958
0.00348308
0.00347399
0.00348793
0.00347543
0.00347403
0.00348804
0.00347418
0.00347464
0.00348305
0.00348945
0.00347412
0.00348794
0.00347405
0.00347543
0.00349114
0.00349116
0.00347284
0.00347587
0.00347587
0.00343506
0.0034498
0.0034507
0.00343384
0.00344855
0.00343293
0.0034351
0.00344983
0.00345059
0.00343381
0.00344721
0.00344722
0.00344723
0.00341425
0.00341424
0.00341423
0.00341425
0.00343365
0.0034495
0.00344567
0.00343522
0.00344854
0.00343427
0.00343519
0.00344849
0.00343284
0.00343363
0.00344565
0.00344941
0.00343526
0.00344853
0.00343516
0.00343424
0.00345003
0.00344997
0.00343254
0.00343403
0.0034341
0.00338836
0.00340501
0.0034065
0.00338699
0.0034043
0.00338645
0.00338842
0.00340502
0.00340648
0.00338695
0.00340246
0.00340246
0.00340247
0.00336635
0.00336634
0.00336635
0.00336635
0.00338722
0.00340494
0.00340115
0.00338925
0.00340441
0.00338757
0.00338919
0.00340427
0.00338647
0.0033872
0.00340116
0.00340493
0.00338926
0.00340442
0.00338918
0.00338753
0.00340503
0.00340508
0.00338616
0.00338705
0.00338707
0.00333949
0.00335651
0.00335783
0.00333833
0.00335612
0.003338
0.00333939
0.0033565
0.00335786
0.00333833
0.00335425
0.00335425
0.00335426
0.0033181
0.00331809
0.00331809
0.0033181
0.0033388
0.00335656
0.00335301
0.00334094
0.00335629
0.00333895
0.00334092
0.00335612
0.003338
0.00333879
0.003353
0.00335656
0.00334096
0.00335628
0.00334089
0.00333895
0.00335656
0.00335657
0.00333787
0.00333842
0.00333841
0.00329082
0.00330807
0.00330903
0.00329004
0.00330779
0.00328979
0.00329082
0.00330805
0.00330895
0.00329003
0.00330606
0.00330606
0.00330607
0.00327005
0.00327005
0.00327004
0.00327005
0.00329058
0.0033081
0.00330494
0.00329295
0.003308