/*--------------------------------*- C++ -*----------------------------------*\
| =========                 |                                                 |
| \\      /  F ield         | OpenFOAM: The Open Source CFD Toolbox           |
|  \\    /   O peration     | Version:  v1906                                 |
|   \\  /    A nd           | Web:      www.OpenFOAM.com                      |
|    \\/     M anipulation  |                                                 |
\*---------------------------------------------------------------------------*/
FoamFile
{
    version     2.0;
    format      ascii;
    class       volScalarField;
    location    "37.5";
    object      p;
}
// * * * * * * * * * * * * * * * * * * * * * * * * * * * * * * * * * * * * * //

dimensions      [0 2 -2 0 0 0 0];


internalField   nonuniform List<scalar> 
171728
(
0.00392118
0.00392138
0.00392142
0.00392388
0.00388246
0.00388242
0.00388241
0.00388568
0.00384508
0.00384477
0.00384477
0.00384699
0.00379864
0.00379859
0.00379839
0.00380116
0.00374983
0.00374979
0.00374966
0.0037523
0.00369969
0.00369964
0.00369964
0.00370215
0.00364996
0.00365018
0.00365018
0.00365303
0.00359977
0.00359952
0.00359952
0.00360251
0.00355166
0.00355127
0.00355128
0.00355396
0.00350813
0.00350795
0.00350795
0.00351048
0.00346643
0.00346637
0.00346637
0.00346882
0.00342511
0.00342506
0.00342506
0.00342751
0.00338381
0.00338377
0.00338377
0.00338622
0.00334252
0.00334248
0.00334248
0.00334493
0.00330124
0.0033012
0.0033012
0.00330364
0.00325995
0.00325991
0.00325991
0.00326235
0.00321866
0.00321862
0.00321862
0.00322107
0.00317738
0.00317734
0.00317734
0.00317978
0.00313609
0.00313605
0.00313605
0.00313849
0.0030948
0.00309476
0.00309476
0.0030972
0.00305351
0.00305347
0.00305347
0.00305591
0.00301222
0.00301218
0.00301218
0.00301462
0.00297093
0.00297089
0.00297089
0.00297333
0.00292964
0.0029296
0.0029296
0.00293205
0.00288835
0.00288831
0.00288831
0.00289076
0.00284706
0.00284703
0.00284703
0.00284947
0.00280578
0.00280574
0.00280574
0.00280818
0.00276449
0.00276445
0.00276445
0.0027669
0.00272321
0.00272317
0.00272317
0.00272561
0.00268193
0.00268189
0.00268189
0.00268433
0.00264065
0.00264061
0.00264061
0.00264305
0.00259937
0.00259933
0.00259933
0.00260177
0.00255809
0.00255805
0.00255805
0.00256049
0.00251681
0.00251678
0.00251678
0.00251922
0.00247554
0.0024755
0.0024755
0.00247794
0.00243427
0.00243423
0.00243423
0.00243667
0.002393
0.00239296
0.00239296
0.0023954
0.00235173
0.00235169
0.00235169
0.00235413
0.00231046
0.00231042
0.00231042
0.00231286
0.00226919
0.00226915
0.00226915
0.00227159
0.00222792
0.00222788
0.00222788
0.00223032
0.00218665
0.00218661
0.00218661
0.00218905
0.00214538
0.00214534
0.00214534
0.00214778
0.00210411
0.00210407
0.00210407
0.00210651
0.00206284
0.0020628
0.0020628
0.00206524
0.00202157
0.00202153
0.00202153
0.00202397
0.0019803
0.00198026
0.00198026
0.0019827
0.00193902
0.00193899
0.00193899
0.00194143
0.00189775
0.00189771
0.00189771
0.00190016
0.00185648
0.00185644
0.00185644
0.00185888
0.00181521
0.00181517
0.00181517
0.00181761
0.00177394
0.0017739
0.0017739
0.00177634
0.00173267
0.00173263
0.00173263
0.00173507
0.0016914
0.00169136
0.00169136
0.0016938
0.00165012
0.00165009
0.00165009
0.00165253
0.00160885
0.00160882
0.00160882
0.00161126
0.00156758
0.00156755
0.00156755
0.00156999
0.00152631
0.00152627
0.00152627
0.00152872
0.00148504
0.001485
0.001485
0.00148745
0.00144377
0.00144373
0.00144373
0.00144618
0.00140251
0.00140247
0.00140247
0.00140491
0.00136124
0.0013612
0.0013612
0.00136364
0.00131998
0.00131994
0.00131994
0.00132238
0.00127871
0.00127867
0.00127867
0.00128112
0.00123745
0.00123741
0.00123741
0.00123985
0.00119619
0.00119615
0.00119615
0.00119859
0.00115493
0.00115489
0.00115489
0.00115733
0.00111367
0.00111364
0.00111364
0.00111608
0.00107242
0.00107238
0.00107238
0.00107482
0.00103117
0.00103113
0.00103113
0.00103357
0.000989919
0.000989881
0.000989881
0.000992322
0.000948672
0.000948634
0.000948634
0.000951075
0.000907428
0.000907389
0.00090739
0.000909831
0.000866184
0.000866146
0.000866146
0.000868587
0.00082494
0.000824902
0.000824902
0.000827343
0.000783696
0.000783658
0.000783658
0.000786099
0.000742453
0.000742414
0.000742415
0.000744855
0.000701209
0.000701171
0.000701171
0.000703612
0.000659966
0.000659928
0.000659928
0.000662369
0.000618724
0.000618685
0.000618685
0.000621126
0.000577482
0.000577443
0.000577443
0.000579884
0.000536241
0.000536203
0.000536203
0.000538644
0.000495001
0.000494962
0.000494962
0.000497403
0.00045376
0.000453722
0.000453722
0.000456163
0.00041252
0.000412482
0.000412482
0.000414923
0.00037128
0.000371242
0.000371242
0.000373683
0.00033004
0.000330001
0.000330002
0.000332441
0.000288799
0.000288753
0.000288753
0.000291189
0.000247553
0.000247516
0.000247516
0.000249951
0.000206316
0.000206282
0.000206281
0.000208713
0.000165069
0.000165032
0.000165032
0.000167452
0.000123816
0.000123788
0.000123787
0.000126191
8.25714e-05
8.25285e-05
8.25274e-05
8.48977e-05
4.21173e-05
4.1546e-05
4.15426e-05
4.37425e-05
8.00775e-06
8.09279e-06
8.09076e-06
7.95833e-06
0.00393013
0.00392998
0.00392997
0.00393009
0.00392997
0.00393
0.00393113
0.0039312
0.00393116
0.00393125
0.00392996
0.00393012
0.00393017
0.00393002
0.00393014
0.00393032
0.00392367
0.00388919
0.00392141
0.00392129
0.00389041
0.00389019
0.00392344
0.00388919
0.00392141
0.00392142
0.00389026
0.0038903
0.00392154
0.0038905
0.00389047
0.00392373
0.0038892
0.0039216
0.00389053
0.0038905
0.00388925
0.00388565
0.00385266
0.00388267
0.00388236
0.00385582
0.00385578
0.00388562
0.00385264
0.00388243
0.00388239
0.00385571
0.00385565
0.00388272
0.00385567
0.00385579
0.00388564
0.00385262
0.00388267
0.0038557
0.00385567
0.00385234
0.00384724
0.00380727
0.00384466
0.00384487
0.00381023
0.00381056
0.00384723
0.00380727
0.00384481
0.00384477
0.00381049
0.00381047
0.00384456
0.00381049
0.00381025
0.00384721
0.00380727
0.00384483
0.00381047
0.00381018
0.00380729
0.00380112
0.00375867
0.00379858
0.00379866
0.00376188
0.00376207
0.00380114
0.00375865
0.0037986
0.00379863
0.00376207
0.0037621
0.00379841
0.00376214
0.00376212
0.00380114
0.00375865
0.00379848
0.00376209
0.00376204
0.00375869
0.0037523
0.00370867
0.00374964
0.00374972
0.0037121
0.00371216
0.00375227
0.00370864
0.00374972
0.00374975
0.00371216
0.00371214
0.00374977
0.00371215
0.00371217
0.00375227
0.00370864
0.00374974
0.00371217
0.00371215
0.00370864
0.00370218
0.00365944
0.00369961
0.00369965
0.00366249
0.00366249
0.00370215
0.00365943
0.00369966
0.00369964
0.0036625
0.00366249
0.00369965
0.00366249
0.00366249
0.00370215
0.00365943
0.00369964
0.00366248
0.00366249
0.00365943
0.00365303
0.00360922
0.00365019
0.00365018
0.00361214
0.00361214
0.00365303
0.00360922
0.00365019
0.00365019
0.00361214
0.00361215
0.00365018
0.00361214
0.00361214
0.00365303
0.00360922
0.00365018
0.00361214
0.00361214
0.00360922
0.00360251
0.00356004
0.00359952
0.00359952
0.00356283
0.00356283
0.00360251
0.00356004
0.00359952
0.00359952
0.00356283
0.00356283
0.00359952
0.00356283
0.00356283
0.00360251
0.00356004
0.00359952
0.00356283
0.00356283
0.00356003
0.00355396
0.00351601
0.00355127
0.00355127
0.00351851
0.00351851
0.00355396
0.00351601
0.00355127
0.00355127
0.00351851
0.00351851
0.00355127
0.00351851
0.0035185
0.00355396
0.00351601
0.00355127
0.0035185
0.0035185
0.00351601
0.00351048
0.00347427
0.00350795
0.00350795
0.00347672
0.00347672
0.00351048
0.00347427
0.00350795
0.00350795
0.00347672
0.00347672
0.00350795
0.00347672
0.00347672
0.00351048
0.00347427
0.00350795
0.00347672
0.00347672
0.00347427
0.00346882
0.00343294
0.00346637
0.00346637
0.00343539
0.00343539
0.00346882
0.00343294
0.00346637
0.00346637
0.00343539
0.00343539
0.00346637
0.00343539
0.00343539
0.00346882
0.00343294
0.00346637
0.00343539
0.00343539
0.00343294
0.00342751
0.00339165
0.00342506
0.00342506
0.0033941
0.0033941
0.00342751
0.00339165
0.00342506
0.00342506
0.0033941
0.0033941
0.00342506
0.0033941
0.0033941
0.00342751
0.00339165
0.00342506
0.0033941
0.0033941
0.00339165
0.00338622
0.00335036
0.00338377
0.00338377
0.00335281
0.00335281
0.00338622
0.00335036
0.00338377
0.00338377
0.00335281
0.00335281
0.00338377
0.00335281
0.00335281
0.00338622
0.00335036
0.00338377
0.00335281
0.00335281
0.00335036
0.00334493
0.00330907
0.00334248
0.00334248
0.00331152
0.00331152
0.00334493
0.00330907
0.00334248
0.00334248
0.00331152
0.00331152
0.00334249
0.00331152
0.00331152
0.00334493
0.00330907
0.00334249
0.00331152
0.00331152
0.00330907
0.00330364
0.00326779
0.0033012
0.0033012
0.00327023
0.00327023
0.00330364
0.00326779
0.0033012
0.0033012
0.00327023
0.00327023
0.0033012
0.00327023
0.00327023
0.00330364
0.00326779
0.0033012
0.00327023
0.00327023
0.00326779
0.00326235
0.0032265
0.00325991
0.00325991
0.00322894
0.00322894
0.00326235
0.0032265
0.00325991
0.00325991
0.00322894
0.00322895
0.00325991
0.00322894
0.00322894
0.00326235
0.0032265
0.00325991
0.00322895
0.00322895
0.0032265
0.00322107
0.00318521
0.00321862
0.00321862
0.00318766
0.00318766
0.00322107
0.00318521
0.00321862
0.00321862
0.00318766
0.00318766
0.00321862
0.00318766
0.00318766
0.00322107
0.00318521
0.00321862
0.00318766
0.00318766
0.00318521
0.00317978
0.00314393
0.00317734
0.00317734
0.00314637
0.00314637
0.00317978
0.00314393
0.00317734
0.00317734
0.00314637
0.00314637
0.00317734
0.00314637
0.00314637
0.00317978
0.00314393
0.00317734
0.00314637
0.00314637
0.00314393
0.00313849
0.00310264
0.00313605
0.00313605
0.00310508
0.00310508
0.00313849
0.00310264
0.00313605
0.00313605
0.00310508
0.00310508
0.00313605
0.00310508
0.00310508
0.00313849
0.00310264
0.00313605
0.00310508
0.00310508
0.00310264
0.0030972
0.00306135
0.00309476
0.00309476
0.00306379
0.00306379
0.0030972
0.00306135
0.00309476
0.00309476
0.00306379
0.00306379
0.00309476
0.00306379
0.00306379
0.0030972
0.00306135
0.00309476
0.00306379
0.00306379
0.00306135
0.00305591
0.00302006
0.00305347
0.00305347
0.0030225
0.0030225
0.00305591
0.00302006
0.00305347
0.00305347
0.0030225
0.0030225
0.00305347
0.0030225
0.0030225
0.00305591
0.00302006
0.00305347
0.0030225
0.0030225
0.00302006
0.00301462
0.00297877
0.00301218
0.00301218
0.00298121
0.00298121
0.00301462
0.00297877
0.00301218
0.00301218
0.00298121
0.00298121
0.00301218
0.00298121
0.00298121
0.00301462
0.00297877
0.00301218
0.00298121
0.00298121
0.00297877
0.00297333
0.00293748
0.00297089
0.00297089
0.00293992
0.00293992
0.00297333
0.00293748
0.00297089
0.00297089
0.00293992
0.00293992
0.00297089
0.00293992
0.00293992
0.00297333
0.00293748
0.00297089
0.00293992
0.00293992
0.00293748
0.00293204
0.00289619
0.0029296
0.0029296
0.00289864
0.00289864
0.00293204
0.00289619
0.0029296
0.0029296
0.00289864
0.00289864
0.0029296
0.00289864
0.00289864
0.00293204
0.00289619
0.0029296
0.00289864
0.00289864
0.00289619
0.00289076
0.0028549
0.00288831
0.00288831
0.00285735
0.00285735
0.00289076
0.0028549
0.00288831
0.00288831
0.00285735
0.00285735
0.00288831
0.00285735
0.00285735
0.00289076
0.0028549
0.00288831
0.00285735
0.00285735
0.0028549
0.00284947
0.00281362
0.00284703
0.00284703
0.00281606
0.00281606
0.00284947
0.00281362
0.00284703
0.00284703
0.00281606
0.00281606
0.00284703
0.00281606
0.00281606
0.00284947
0.00281362
0.00284703
0.00281606
0.00281606
0.00281362
0.00280818
0.00277233
0.00280574
0.00280574
0.00277478
0.00277478
0.00280818
0.00277233
0.00280574
0.00280574
0.00277478
0.00277478
0.00280574
0.00277478
0.00277478
0.00280818
0.00277233
0.00280574
0.00277478
0.00277478
0.00277233
0.0027669
0.00273105
0.00276445
0.00276445
0.00273349
0.00273349
0.0027669
0.00273105
0.00276445
0.00276445
0.00273349
0.00273349
0.00276445
0.00273349
0.00273349
0.0027669
0.00273105
0.00276445
0.00273349
0.00273349
0.00273105
0.00272561
0.00268977
0.00272317
0.00272317
0.00269221
0.00269221
0.00272561
0.00268977
0.00272317
0.00272317
0.00269221
0.00269221
0.00272317
0.00269221
0.00269221
0.00272561
0.00268976
0.00272317
0.00269221
0.00269221
0.00268976
0.00268433
0.00264848
0.00268189
0.00268189
0.00265093
0.00265093
0.00268433
0.00264849
0.00268189
0.00268189
0.00265093
0.00265093
0.00268189
0.00265093
0.00265093
0.00268433
0.00264848
0.00268189
0.00265093
0.00265093
0.00264849
0.00264305
0.00260721
0.00264061
0.00264061
0.00260965
0.00260965
0.00264305
0.00260721
0.00264061
0.00264061
0.00260965
0.00260965
0.00264061
0.00260965
0.00260965
0.00264305
0.00260721
0.00264061
0.00260965
0.00260965
0.00260721
0.00260177
0.00256593
0.00259933
0.00259933
0.00256837
0.00256837
0.00260177
0.00256593
0.00259933
0.00259933
0.00256837
0.00256837
0.00259933
0.00256837
0.00256837
0.00260177
0.00256593
0.00259933
0.00256837
0.00256837
0.00256593
0.00256049
0.00252465
0.00255805
0.00255805
0.00252709
0.00252709
0.00256049
0.00252465
0.00255805
0.00255805
0.00252709
0.00252709
0.00255805
0.00252709
0.00252709
0.00256049
0.00252465
0.00255805
0.00252709
0.00252709
0.00252465
0.00251922
0.00248338
0.00251678
0.00251678
0.00248582
0.00248582
0.00251922
0.00248338
0.00251678
0.00251678
0.00248582
0.00248582
0.00251678
0.00248582
0.00248582
0.00251922
0.00248338
0.00251678
0.00248582
0.00248582
0.00248338
0.00247794
0.0024421
0.0024755
0.0024755
0.00244455
0.00244455
0.00247794
0.0024421
0.0024755
0.0024755
0.00244455
0.00244455
0.0024755
0.00244455
0.00244455
0.00247794
0.0024421
0.0024755
0.00244455
0.00244455
0.0024421
0.00243667
0.00240083
0.00243423
0.00243423
0.00240328
0.00240328
0.00243667
0.00240083
0.00243423
0.00243423
0.00240328
0.00240328
0.00243423
0.00240328
0.00240328
0.00243667
0.00240083
0.00243423
0.00240328
0.00240328
0.00240083
0.0023954
0.00235956
0.00239296
0.00239296
0.00236201
0.00236201
0.0023954
0.00235956
0.00239296
0.00239296
0.00236201
0.00236201
0.00239296
0.00236201
0.00236201
0.0023954
0.00235956
0.00239296
0.00236201
0.00236201
0.00235956
0.00235413
0.00231829
0.00235169
0.00235169
0.00232074
0.00232074
0.00235413
0.00231829
0.00235169
0.00235169
0.00232074
0.00232074
0.00235169
0.00232074
0.00232074
0.00235413
0.00231829
0.00235169
0.00232074
0.00232074
0.00231829
0.00231286
0.00227702
0.00231042
0.00231042
0.00227947
0.00227947
0.00231286
0.00227702
0.00231042
0.00231042
0.00227947
0.00227947
0.00231042
0.00227947
0.00227947
0.00231286
0.00227702
0.00231042
0.00227947
0.00227947
0.00227702
0.00227159
0.00223576
0.00226915
0.00226915
0.0022382
0.0022382
0.00227159
0.00223575
0.00226915
0.00226915
0.0022382
0.0022382
0.00226915
0.0022382
0.0022382
0.00227159
0.00223575
0.00226915
0.0022382
0.0022382
0.00223575
0.00223032
0.00219449
0.00222788
0.00222788
0.00219693
0.00219693
0.00223032
0.00219449
0.00222788
0.00222788
0.00219693
0.00219693
0.00222788
0.00219693
0.00219693
0.00223032
0.00219449
0.00222788
0.00219693
0.00219693
0.00219449
0.00218905
0.00215322
0.00218661
0.00218661
0.00215566
0.00215566
0.00218905
0.00215322
0.00218661
0.00218661
0.00215566
0.00215566
0.00218661
0.00215566
0.00215566
0.00218905
0.00215322
0.00218661
0.00215566
0.00215566
0.00215322
0.00214778
0.00211194
0.00214534
0.00214534
0.00211439
0.00211439
0.00214778
0.00211195
0.00214534
0.00214534
0.00211439
0.00211439
0.00214534
0.00211439
0.00211439
0.00214778
0.00211195
0.00214534
0.00211439
0.00211439
0.00211195
0.00210651
0.00207067
0.00210407
0.00210407
0.00207312
0.00207312
0.00210651
0.00207067
0.00210407
0.00210407
0.00207312
0.00207312
0.00210407
0.00207312
0.00207312
0.00210651
0.00207067
0.00210407
0.00207312
0.00207312
0.00207067
0.00206524
0.0020294
0.0020628
0.0020628
0.00203185
0.00203185
0.00206524
0.0020294
0.0020628
0.0020628
0.00203185
0.00203185
0.0020628
0.00203185
0.00203185
0.00206524
0.0020294
0.0020628
0.00203185
0.00203185
0.0020294
0.00202397
0.00198813
0.00202153
0.00202153
0.00199058
0.00199058
0.00202397
0.00198813
0.00202153
0.00202153
0.00199058
0.00199058
0.00202153
0.00199058
0.00199058
0.00202397
0.00198813
0.00202153
0.00199058
0.00199058
0.00198813
0.0019827
0.00194686
0.00198026
0.00198026
0.0019493
0.0019493
0.0019827
0.00194686
0.00198026
0.00198026
0.0019493
0.0019493
0.00198026
0.0019493
0.0019493
0.0019827
0.00194686
0.00198026
0.0019493
0.0019493
0.00194686
0.00194143
0.00190559
0.00193899
0.00193899
0.00190803
0.00190803
0.00194143
0.00190559
0.00193899
0.00193899
0.00190803
0.00190803
0.00193899
0.00190803
0.00190803
0.00194143
0.00190559
0.00193899
0.00190803
0.00190803
0.00190559
0.00190016
0.00186432
0.00189771
0.00189771
0.00186676
0.00186676
0.00190016
0.00186432
0.00189771
0.00189771
0.00186676
0.00186676
0.00189771
0.00186676
0.00186676
0.00190016
0.00186432
0.00189771
0.00186676
0.00186676
0.00186432
0.00185889
0.00182305
0.00185644
0.00185644
0.00182549
0.00182549
0.00185889
0.00182305
0.00185644
0.00185644
0.00182549
0.00182549
0.00185644
0.00182549
0.00182549
0.00185888
0.00182305
0.00185644
0.00182549
0.00182549
0.00182305
0.00181761
0.00178177
0.00181517
0.00181517
0.00178422
0.00178422
0.00181761
0.00178177
0.00181517
0.00181517
0.00178422
0.00178422
0.00181517
0.00178422
0.00178422
0.00181761
0.00178177
0.00181517
0.00178422
0.00178422
0.00178177
0.00177634
0.0017405
0.0017739
0.0017739
0.00174295
0.00174295
0.00177634
0.0017405
0.0017739
0.0017739
0.00174295
0.00174295
0.0017739
0.00174295
0.00174295
0.00177634
0.0017405
0.0017739
0.00174295
0.00174295
0.0017405
0.00173507
0.00169923
0.00173263
0.00173263
0.00170168
0.00170167
0.00173507
0.00169923
0.00173263
0.00173263
0.00170168
0.00170168
0.00173263
0.00170168
0.00170168
0.00173507
0.00169923
0.00173263
0.00170168
0.00170168
0.00169923
0.0016938
0.00165796
0.00169136
0.00169136
0.0016604
0.0016604
0.0016938
0.00165796
0.00169136
0.00169136
0.0016604
0.0016604
0.00169136
0.0016604
0.0016604
0.0016938
0.00165796
0.00169136
0.0016604
0.0016604
0.00165796
0.00165253
0.00161669
0.00165009
0.00165009
0.00161913
0.00161913
0.00165253
0.00161669
0.00165009
0.00165009
0.00161913
0.00161913
0.00165009
0.00161913
0.00161913
0.00165253
0.00161669
0.00165009
0.00161913
0.00161913
0.00161669
0.00161126
0.00157542
0.00160882
0.00160882
0.00157786
0.00157786
0.00161126
0.00157542
0.00160882
0.00160882
0.00157786
0.00157786
0.00160882
0.00157786
0.00157786
0.00161126
0.00157542
0.00160882
0.00157786
0.00157786
0.00157542
0.00156999
0.00153415
0.00156754
0.00156754
0.00153659
0.00153659
0.00156999
0.00153415
0.00156754
0.00156755
0.00153659
0.00153659
0.00156755
0.00153659
0.00153659
0.00156999
0.00153415
0.00156755
0.00153659
0.00153659
0.00153415
0.00152872
0.00149288
0.00152627
0.00152627
0.00149532
0.00149532
0.00152872
0.00149288
0.00152627
0.00152627
0.00149532
0.00149532
0.00152627
0.00149532
0.00149532
0.00152872
0.00149288
0.00152627
0.00149532
0.00149532
0.00149288
0.00148745
0.00145161
0.001485
0.001485
0.00145405
0.00145405
0.00148745
0.00145161
0.001485
0.001485
0.00145405
0.00145405
0.001485
0.00145405
0.00145405
0.00148745
0.00145161
0.001485
0.00145405
0.00145405
0.00145161
0.00144618
0.00141034
0.00144373
0.00144373
0.00141278
0.00141278
0.00144618
0.00141034
0.00144373
0.00144373
0.00141278
0.00141278
0.00144373
0.00141278
0.00141278
0.00144618
0.00141034
0.00144373
0.00141278
0.00141278
0.00141034
0.00140491
0.00136908
0.00140247
0.00140247
0.00137152
0.00137152
0.00140491
0.00136908
0.00140247
0.00140247
0.00137152
0.00137152
0.00140247
0.00137152
0.00137152
0.00140491
0.00136907
0.00140247
0.00137152
0.00137152
0.00136907
0.00136364
0.00132781
0.0013612
0.0013612
0.00133025
0.00133025
0.00136364
0.00132781
0.0013612
0.0013612
0.00133025
0.00133025
0.0013612
0.00133025
0.00133025
0.00136364
0.00132781
0.0013612
0.00133025
0.00133025
0.00132781
0.00132238
0.00128655
0.00131994
0.00131994
0.00128899
0.00128899
0.00132238
0.00128655
0.00131994
0.00131994
0.00128899
0.00128899
0.00131994
0.00128899
0.00128899
0.00132238
0.00128655
0.00131994
0.00128899
0.00128899
0.00128655
0.00128112
0.00124528
0.00127867
0.00127867
0.00124773
0.00124773
0.00128112
0.00124528
0.00127867
0.00127867
0.00124773
0.00124773
0.00127867
0.00124773
0.00124773
0.00128112
0.00124528
0.00127867
0.00124773
0.00124773
0.00124528
0.00123985
0.00120402
0.00123741
0.00123741
0.00120647
0.00120647
0.00123985
0.00120402
0.00123741
0.00123741
0.00120647
0.00120647
0.00123741
0.00120647
0.00120647
0.00123985
0.00120402
0.00123741
0.00120647
0.00120647
0.00120402
0.00119859
0.00116276
0.00119615
0.00119615
0.00116521
0.00116521
0.00119859
0.00116276
0.00119615
0.00119615
0.00116521
0.00116521
0.00119615
0.00116521
0.00116521
0.00119859
0.00116276
0.00119615
0.00116521
0.00116521
0.00116276
0.00115733
0.00112151
0.00115489
0.00115489
0.00112395
0.00112395
0.00115733
0.00112151
0.00115489
0.00115489
0.00112395
0.00112395
0.00115489
0.00112395
0.00112395
0.00115733
0.00112151
0.00115489
0.00112395
0.00112395
0.00112151
0.00111608
0.00108025
0.00111364
0.00111364
0.00108269
0.00108269
0.00111608
0.00108025
0.00111364
0.00111364
0.00108269
0.00108269
0.00111364
0.0010827
0.00108269
0.00111608
0.00108025
0.00111364
0.00108269
0.00108269
0.00108025
0.00107482
0.001039
0.00107238
0.00107238
0.00104144
0.00104144
0.00107482
0.001039
0.00107238
0.00107238
0.00104144
0.00104144
0.00107238
0.00104144
0.00104144
0.00107482
0.001039
0.00107238
0.00104144
0.00104144
0.001039
0.00103357
0.00099775
0.00103113
0.00103113
0.00100019
0.00100019
0.00103357
0.00099775
0.00103113
0.00103113
0.00100019
0.00100019
0.00103113
0.00100019
0.00100019
0.00103357
0.00099775
0.00103113
0.00100019
0.00100019
0.00099775
0.000992322
0.000956503
0.000989881
0.000989881
0.000958945
0.000958945
0.000992322
0.000956503
0.000989881
0.000989881
0.000958945
0.000958946
0.000989881
0.000958945
0.000958946
0.000992322
0.000956503
0.000989881
0.000958946
0.000958946
0.000956503
0.000951075
0.000915258
0.000948634
0.000948634
0.000917701
0.0009177
0.000951075
0.000915258
0.000948634
0.000948634
0.0009177
0.000917701
0.000948634
0.0009177
0.000917701
0.000951075
0.000915258
0.000948634
0.000917701
0.000917701
0.000915258
0.00090983
0.000874014
0.00090739
0.000907389
0.000876457
0.000876457
0.00090983
0.000874014
0.000907389
0.00090739
0.000876456
0.000876457
0.00090739
0.000876457
0.000876457
0.00090983
0.000874014
0.00090739
0.000876457
0.000876457
0.000874014
0.000868587
0.00083277
0.000866146
0.000866146
0.000835213
0.000835213
0.000868586
0.00083277
0.000866145
0.000866146
0.000835212
0.000835213
0.000866146
0.000835213
0.000835213
0.000868586
0.00083277
0.000866146
0.000835213
0.000835213
0.00083277
0.000827343
0.000791526
0.000824902
0.000824902
0.000793969
0.000793969
0.000827342
0.000791527
0.000824902
0.000824902
0.000793969
0.000793969
0.000824902
0.000793969
0.000793969
0.000827343
0.000791526
0.000824902
0.000793969
0.000793969
0.000791526
0.000786099
0.000750283
0.000783658
0.000783658
0.000752725
0.000752725
0.000786099
0.000750283
0.000783658
0.000783658
0.000752725
0.000752725
0.000783658
0.000752725
0.000752726
0.000786099
0.000750283
0.000783658
0.000752725
0.000752725
0.000750283
0.000744855
0.000709039
0.000742415
0.000742414
0.000711482
0.000711482
0.000744855
0.000709039
0.000742414
0.000742415
0.000711482
0.000711482
0.000742415
0.000711482
0.000711482
0.000744855
0.000709039
0.000742414
0.000711482
0.000711482
0.000709039
0.000703612
0.000667796
0.000701171
0.000701171
0.000670239
0.000670239
0.000703612
0.000667796
0.000701171
0.000701171
0.000670239
0.000670239
0.000701171
0.000670239
0.000670239
0.000703612
0.000667796
0.000701171
0.000670239
0.000670239
0.000667796
0.000662369
0.000626554
0.000659928
0.000659928
0.000628996
0.000628996
0.000662369
0.000626554
0.000659928
0.000659928
0.000628996
0.000628996
0.000659928
0.000628996
0.000628996
0.000662369
0.000626553
0.000659928
0.000628996
0.000628996
0.000626553
0.000621126
0.000585311
0.000618686
0.000618685
0.000587754
0.000587754
0.000621126
0.000585311
0.000618685
0.000618685
0.000587754
0.000587754
0.000618686
0.000587754
0.000587754
0.000621126
0.000585311
0.000618685
0.000587754
0.000587754
0.000585311
0.000579884
0.000544071
0.000577444
0.000577443
0.000546513
0.000546513
0.000579884
0.000544071
0.000577443
0.000577444
0.000546513
0.000546513
0.000577443
0.000546513
0.000546513
0.000579884
0.00054407
0.000577443
0.000546513
0.000546513
0.00054407
0.000538644
0.00050283
0.000536203
0.000536203
0.000505273
0.000505273
0.000538644
0.00050283
0.000536203
0.000536203
0.000505273
0.000505273
0.000536203
0.000505273
0.000505273
0.000538644
0.00050283
0.000536203
0.000505273
0.000505273
0.00050283
0.000497403
0.00046159
0.000494963
0.000494963
0.000464032
0.000464032
0.000497403
0.00046159
0.000494962
0.000494963
0.000464032
0.000464032
0.000494963
0.000464032
0.000464032
0.000497403
0.00046159
0.000494962
0.000464032
0.000464032
0.00046159
0.000456163
0.000420349
0.000453722
0.000453722
0.000422791
0.000422791
0.000456163
0.000420349
0.000453722
0.000453722
0.000422791
0.000422791
0.000453722
0.000422791
0.000422792
0.000456163
0.000420349
0.000453722
0.000422791
0.000422791
0.000420349
0.000414923
0.000379108
0.000412482
0.000412482
0.00038155
0.00038155
0.000414923
0.000379108
0.000412482
0.000412482
0.00038155
0.00038155
0.000412482
0.00038155
0.00038155
0.000414923
0.000379108
0.000412482
0.00038155
0.00038155
0.000379108
0.000373683
0.000337868
0.000371242
0.000371242
0.00034031
0.00034031
0.000373683
0.000337868
0.000371242
0.000371242
0.00034031
0.00034031
0.000371242
0.00034031
0.00034031
0.000373683
0.000337867
0.000371242
0.00034031
0.00034031
0.000337867
0.000332441
0.000296627
0.000330002
0.000330001
0.00029907
0.00029907
0.000332441
0.000296627
0.000330001
0.000330002
0.00029907
0.00029907
0.000330002
0.00029907
0.00029907
0.000332441
0.000296626
0.000330001
0.00029907
0.00029907
0.000296627
0.000291189
0.000255396
0.000288753
0.000288752
0.000257835
0.000257835
0.000291189
0.000255396
0.000288753
0.000288752
0.000257835
0.000257835
0.000288753
0.000257835
0.000257835
0.00029119
0.000255395
0.000288753
0.000257835
0.000257835
0.000255395
0.000249951
0.000214145
0.000247517
0.000247517
0.000216581
0.00021658
0.000249951
0.000214145
0.000247517
0.000247517
0.00021658
0.00021658
0.000247516
0.00021658
0.000216581
0.000249951
0.000214144
0.000247516
0.00021658
0.00021658
0.000214145
0.000208713
0.000172911
0.000206282
0.000206282
0.000175345
0.000175345
0.000208713
0.000172911
0.000206281
0.000206281
0.000175345
0.000175345
0.000206282
0.000175345
0.000175345
0.000208713
0.000172911
0.000206282
0.000175345
0.000175345
0.000172911
0.000167452
0.000131673
0.000165032
0.000165032
0.000134103
0.000134103
0.000167452
0.000131673
0.000165032
0.000165032
0.000134102
0.000134102
0.000165032
0.000134103
0.000134103
0.000167452
0.000131672
0.000165032
0.000134102
0.000134103
0.000131673
0.000126191
9.04209e-05
0.000123788
0.000123788
9.28442e-05
9.28444e-05
0.000126191
9.04214e-05
0.000123788
0.000123788
9.28438e-05
9.28436e-05
0.000123788
9.2844e-05
9.28435e-05
0.00012619
9.042e-05
0.000123788
9.28434e-05
9.28433e-05
9.042e-05
8.48991e-05
4.92437e-05
8.25287e-05
8.25288e-05
5.16717e-05
5.16724e-05
8.48988e-05
4.92448e-05
8.2528e-05
8.25276e-05
5.16698e-05
5.16689e-05
8.25277e-05
5.16708e-05
5.16686e-05
8.48985e-05
4.9241e-05
8.25273e-05
5.1668e-05
5.16672e-05
4.92405e-05
4.37463e-05
1.16308e-05
4.15474e-05
4.1548e-05
1.40064e-05
1.40066e-05
4.37471e-05
1.16319e-05
4.15455e-05
4.15439e-05
1.40047e-05
1.40017e-05
4.15431e-05
1.40041e-05
1.40001e-05
4.37431e-05
1.16271e-05
4.1542e-05
1.40013e-05
1.40014e-05
1.16267e-05
7.96038e-06
8.09398e-06
8.09458e-06
7.96286e-06
8.09166e-06
8.09044e-06
8.00784e-06
8.00567e-06
8.00541e-06
8.08972e-06
7.95862e-06
8.09009e-06
0.00393622
0.00394251
0.00393924
0.00393917
0.00395704
0.00394535
0.00396764
0.00394118
0.00395723
0.0039453
0.00394123
0.00396874
0.00395011
0.00397246
0.00397206
0.00390315
0.00391902
0.00392279
0.00389546
0.00389624
0.00389867
0.00390317
0.00391917
0.00392288
0.00389553
0.00392116
0.00392121
0.00392132
0.00389082
0.0038908
0.00389083
0.0038908
0.00390331
0.0039194
0.00392167
0.00391026
0.00392407
0.00389982
0.00391076
0.00389628
0.00389888
0.00390341
0.00392173
0.00391808
0.00391008
0.00392408
0.00391079
0.00389988
0.00392368
0.00392381
0.00390651
0.00390001
0.00389991
0.00387636
0.00388993
0.00389012
0.00387441
0.00388737
0.00387334
0.00387647
0.00389023
0.00388997
0.00387409
0.00388244
0.00388245
0.00388234
0.00385604
0.00385599
0.003856
0.00385589
0.00387423
0.00388917
0.00388197
0.0038747
0.00388689
0.00387455
0.00387385
0.00388748
0.00387329
0.00387416
0.00388204
0.00388914
0.00387469
0.00388692
0.00387393
0.00387449
0.00389087
0.0038909
0.00387287
0.00387494
0.00387482
0.00383379
0.00384857
0.00384964
0.00383174
0.00384751
0.00383093
0.00383361
0.00384867
0.00384966
0.00383182
0.0038451
0.00384509
0.003845
0.00381054
0.00381057
0.00381057
0.00381052
0.00383137
0.00384869
0.00384423
0.00383339
0.00384739
0.0038321
0.00383293
0.00384744
0.00383098
0.00383129
0.00384427
0.00384859
0.00383329
0.00384745
0.00383291
0.00383199
0.00384857
0.00384873
0.00383049
0.00383125
0.00383174
0.00378508
0.00380192
0.00380371
0.00378282
0.00380085
0.00378286
0.00378519
0.00380188
0.00380368
0.00378335
0.00379868
0.00379867
0.00379865
0.00376216
0.0037622
0.00376218
0.00376221
0.00378356
0.00380225
0.00379812
0.00378654
0.0038016
0.00378433
0.00378614
0.00380094
0.00378276
0.0037835
0.00379806
0.00380207
0.00378649
0.00380155
0.00378607
0.00378443
0.0038023
0.00380166
0.00378324
0.00378413
0.0037842
0.00373569
0.00375264
0.00375466
0.00373369
0.00375174
0.0037328
0.00373564
0.00375219
0.00375469
0.00373341
0.00374985
0.00374983
0.00374986
0.00371222
0.00371221
0.00371221
0.00371221
0.00373396
0.00375347
0.0037494
0.00373734
0.00375269
0.00373459
0.00373703
0.00375169
0.00373279
0.00373395
0.00374938
0.00375309
0.00373726
0.00375267
0.003737
0.00373478
0.00375295
0.00375293
0.00373381
0.00373398
0.00373397
0.00368436
0.00370145
0.00370343
0.00368261
0.00370094
0.00368211
0.00368436
0.00370155
0.00370341
0.00368265
0.00369968
0.00369968
0.00369967
0.00366239
0.00366239
0.00366239
0.00366239
0.00368359
0.00370282
0.00369941
0.00368714
0.00370215
0.00368415
0.00368698
0.00370096
0.00368212
0.00368359
0.0036994
0.00370281
0.00368712
0.00370214