/*--------------------------------*- C++ -*----------------------------------*\
| =========                 |                                                 |
| \\      /  F ield         | OpenFOAM: The Open Source CFD Toolbox           |
|  \\    /   O peration     | Version:  v1906                                 |
|   \\  /    A nd           | Web:      www.OpenFOAM.com                      |
|    \\/     M anipulation  |                                                 |
\*---------------------------------------------------------------------------*/
FoamFile
{
    version     2.0;
    format      ascii;
    class       volScalarField;
    location    "112.5";
    object      epsilon;
}
// * * * * * * * * * * * * * * * * * * * * * * * * * * * * * * * * * * * * * //

dimensions      [0 2 -3 0 0 0 0];


internalField   nonuniform List<scalar> 
171728
(
4.54114e-08
9.73039e-09
7.83987e-09
5.62465e-09
4.58428e-08
1.00164e-08
7.92203e-09
5.2198e-09
4.73742e-08
1.0539e-08
8.11998e-09
4.92354e-09
4.8904e-08
1.12464e-08
8.41992e-09
4.72368e-09
5.04279e-08
1.21247e-08
8.83243e-09
4.63622e-09
5.19429e-08
1.31452e-08
9.25788e-09
4.60725e-09
5.34501e-08
1.42451e-08
1.00481e-08
4.59773e-09
5.49185e-08
1.53199e-08
1.10297e-08
4.69909e-09
5.63912e-08
1.62431e-08
1.21318e-08
4.95181e-09
5.78065e-08
1.67352e-08
1.34524e-08
5.33125e-09
5.91802e-08
1.68312e-08
1.49752e-08
5.82718e-09
6.04436e-08
1.71387e-08
1.67568e-08
6.52233e-09
6.17373e-08
1.8774e-08
1.88112e-08
7.51668e-09
6.33186e-08
2.10328e-08
2.13192e-08
8.91911e-09
6.51158e-08
2.39607e-08
2.44906e-08
1.11181e-08
6.67825e-08
2.76846e-08
2.82518e-08
1.44982e-08
6.86955e-08
3.24515e-08
3.28841e-08
1.92646e-08
7.08661e-08
3.83704e-08
3.87172e-08
2.57445e-08
7.33326e-08
4.565e-08
4.62303e-08
3.60022e-08
7.64845e-08
5.54709e-08
5.62533e-08
5.23021e-08
8.04833e-08
6.91315e-08
6.99124e-08
7.9486e-08
8.588e-08
8.91265e-08
8.94916e-08
1.23675e-07
9.35118e-08
1.22092e-07
1.22359e-07
1.96383e-07
1.05647e-07
1.72739e-07
1.73087e-07
2.96448e-07
1.24223e-07
2.40384e-07
2.40576e-07
4.0892e-07
1.46388e-07
3.09597e-07
3.09694e-07
5.03996e-07
1.69042e-07
3.66409e-07
3.66486e-07
5.69485e-07
1.85803e-07
3.99412e-07
3.99487e-07
6.01883e-07
1.93735e-07
4.1145e-07
4.11525e-07
6.1194e-07
1.96286e-07
4.14568e-07
4.1464e-07
6.14227e-07
1.96908e-07
4.15235e-07
4.15306e-07
6.14813e-07
1.97032e-07
4.15355e-07
4.15425e-07
6.14845e-07
1.97053e-07
4.15361e-07
4.15432e-07
6.14804e-07
1.97059e-07
4.15367e-07
4.15437e-07
6.14837e-07
1.97062e-07
4.15369e-07
4.1544e-07
6.14826e-07
1.97065e-07
4.15373e-07
4.15443e-07
6.14836e-07
1.97067e-07
4.15375e-07
4.15445e-07
6.14835e-07
1.97069e-07
4.15379e-07
4.15449e-07
6.14839e-07
1.97071e-07
4.15379e-07
4.15449e-07
6.14838e-07
1.97072e-07
4.1538e-07
4.1545e-07
6.14839e-07
1.97074e-07
4.15384e-07
4.15453e-07
6.14833e-07
1.97075e-07
4.1538e-07
4.15452e-07
6.14845e-07
1.97075e-07
4.15377e-07
4.1545e-07
6.14849e-07
1.97075e-07
4.15378e-07
4.15451e-07
6.14834e-07
1.97075e-07
4.15379e-07
4.15452e-07
6.14842e-07
1.97075e-07
4.15378e-07
4.15452e-07
6.14842e-07
1.97075e-07
4.15375e-07
4.15451e-07
6.14793e-07
1.97075e-07
4.15377e-07
4.15449e-07
6.14745e-07
1.97076e-07
4.15378e-07
4.15449e-07
6.14746e-07
1.97076e-07
4.15378e-07
4.15451e-07
6.14766e-07
1.97076e-07
4.15377e-07
4.1545e-07
6.148e-07
1.97076e-07
4.15377e-07
4.15449e-07
6.14849e-07
1.97076e-07
4.15378e-07
4.1545e-07
6.14876e-07
1.97076e-07
4.15378e-07
4.1545e-07
6.14879e-07
1.97076e-07
4.15378e-07
4.1545e-07
6.14872e-07
1.97077e-07
4.15378e-07
4.1545e-07
6.14866e-07
1.97077e-07
4.15378e-07
4.15449e-07
6.14858e-07
1.97077e-07
4.15379e-07
4.15449e-07
6.1485e-07
1.97077e-07
4.15379e-07
4.1545e-07
6.14844e-07
1.97077e-07
4.15379e-07
4.15451e-07
6.14841e-07
1.97077e-07
4.15379e-07
4.1545e-07
6.1484e-07
1.97077e-07
4.15379e-07
4.1545e-07
6.14845e-07
1.97077e-07
4.15379e-07
4.1545e-07
6.14847e-07
1.97077e-07
4.15379e-07
4.15449e-07
6.14838e-07
1.97076e-07
4.15379e-07
4.15449e-07
6.14833e-07
1.97076e-07
4.15379e-07
4.1545e-07
6.14849e-07
1.97076e-07
4.15378e-07
4.1545e-07
6.14866e-07
1.97076e-07
4.15379e-07
4.1545e-07
6.14866e-07
1.97076e-07
4.15379e-07
4.15449e-07
6.14852e-07
1.97076e-07
4.15379e-07
4.15449e-07
6.1484e-07
1.97076e-07
4.15379e-07
4.15449e-07
6.14843e-07
1.97076e-07
4.15379e-07
4.15449e-07
6.14849e-07
1.97077e-07
4.15379e-07
4.15449e-07
6.14843e-07
1.97077e-07
4.15379e-07
4.15449e-07
6.14838e-07
1.97077e-07
4.15379e-07
4.15449e-07
6.14848e-07
1.97077e-07
4.15379e-07
4.15449e-07
6.14863e-07
1.97077e-07
4.15379e-07
4.15449e-07
6.14866e-07
1.97077e-07
4.15379e-07
4.15448e-07
6.14857e-07
1.97078e-07
4.15379e-07
4.15448e-07
6.14845e-07
1.97078e-07
4.15378e-07
4.15448e-07
6.14842e-07
1.97078e-07
4.15379e-07
4.15448e-07
6.14842e-07
1.97078e-07
4.15379e-07
4.15448e-07
6.14831e-07
1.97079e-07
4.1538e-07
4.15448e-07
6.14833e-07
1.97079e-07
4.15381e-07
4.15449e-07
6.14855e-07
1.9708e-07
4.15382e-07
4.1545e-07
6.14862e-07
1.9708e-07
4.15383e-07
4.15452e-07
6.14862e-07
1.97081e-07
4.15385e-07
4.15453e-07
6.14865e-07
1.97081e-07
4.15387e-07
4.15455e-07
6.14854e-07
1.97082e-07
4.15387e-07
4.15455e-07
6.14833e-07
1.97082e-07
4.15386e-07
4.15454e-07
6.14837e-07
1.97083e-07
4.15383e-07
4.15451e-07
6.14844e-07
1.97084e-07
4.15375e-07
4.15443e-07
6.14817e-07
1.9708e-07
4.15352e-07
4.15418e-07
6.14766e-07
1.96927e-07
4.15254e-07
4.15317e-07
6.14511e-07
1.90954e-07
3.89591e-07
3.89604e-07
5.826e-07
6.11036e-09
6.32498e-09
6.01712e-09
5.59678e-09
6.95592e-09
6.79883e-09
4.64359e-08
4.65227e-08
4.58188e-08
4.59726e-08
7.03304e-09
5.86947e-09
6.19913e-09
6.5265e-09
6.26749e-09
5.70412e-09
6.04591e-09
5.72911e-09
7.49503e-09
7.51416e-09
7.54886e-09
7.67852e-09
5.51807e-09
5.20879e-09
8.84269e-09
8.46182e-09
9.04177e-09
8.45834e-09
7.17514e-09
9.91572e-09
7.32832e-09
6.13708e-09
5.80238e-09
7.56104e-09
7.89134e-09
7.60287e-09
5.28599e-09
5.65573e-09
5.43069e-09
7.59305e-09
7.76852e-09
7.75859e-09
8.0892e-09
5.14347e-09
5.0143e-09
9.14409e-09
8.48124e-09
9.50457e-09
8.59755e-09
7.41173e-09
1.03917e-08
7.69035e-09
5.72545e-09
5.42592e-09
7.63602e-09
8.06724e-09
7.76847e-09
4.98474e-09
5.36835e-09
5.2345e-09
7.83136e-09
8.21671e-09
8.10194e-09
8.62306e-09
4.96816e-09
4.94192e-09
9.64164e-09
8.65377e-09
1.009e-08
8.85786e-09
7.79966e-09
1.1053e-08
8.14977e-09
5.34386e-09
5.10638e-09
7.82737e-09
8.3441e-09
8.03455e-09
4.76503e-09
5.18878e-09
5.13689e-09
8.19615e-09
8.78114e-09
8.57544e-09
9.28677e-09
4.91123e-09
4.9695e-09
1.02482e-08
8.94786e-09
1.07719e-08
9.23519e-09
8.28184e-09
1.18939e-08
8.70551e-09
5.0336e-09
4.81286e-09
8.12552e-09
8.73821e-09
8.43836e-09
4.66414e-09
5.10417e-09
5.11625e-09
8.70471e-09
9.46494e-09
9.18542e-09
1.00653e-08
4.94411e-09
5.11153e-09
1.097e-08
9.34728e-09
1.16168e-08
9.73726e-09
8.85555e-09
1.2883e-08
9.36327e-09
4.75703e-09
4.71373e-09
8.56122e-09
9.13773e-09
8.99583e-09
4.63161e-09
5.09217e-09
5.22351e-09
9.3681e-09
1.02688e-08
9.95469e-09
1.09527e-08
5.08953e-09
5.34114e-09
1.18537e-08
9.8752e-09
1.26467e-08
1.03695e-08
9.53926e-09
1.39706e-08
1.01402e-08
4.6788e-09
4.60211e-09
9.15824e-09
9.84021e-09
9.74657e-09
4.62135e-09
5.20365e-09
5.39635e-09
1.01716e-08
1.11968e-08
1.09284e-08
1.19915e-08
5.32127e-09
5.60108e-09
1.2918e-08
1.05349e-08
1.38002e-08
1.11319e-08
1.03494e-08
1.50576e-08
1.10377e-08
4.53651e-09
4.44618e-09
9.96371e-09
1.07775e-08
1.06803e-08
4.71235e-09
5.38081e-09
5.72546e-09
1.12107e-08
1.22639e-08
1.21283e-08
1.31292e-08
5.58172e-09
5.87043e-09
1.41248e-08
1.13533e-08
1.51397e-08
1.20684e-08
1.12998e-08
1.60384e-08
1.21062e-08
4.41415e-09
4.62987e-09
1.09495e-08
1.18343e-08
1.18237e-08
4.95837e-09
5.718e-09
6.16244e-09
1.24618e-08
1.34567e-08
1.34851e-08
1.44601e-08
5.84988e-09
6.05914e-09
1.55056e-08
1.23505e-08
1.66124e-08
1.32192e-08
1.24092e-08
1.66713e-08
1.33589e-08
4.62102e-09
4.99806e-09
1.21376e-08
1.31211e-08
1.31547e-08
5.33301e-09
6.15874e-09
6.70727e-09
1.38584e-08
1.48284e-08
1.5111e-08
1.60365e-08
6.03367e-09
6.24488e-09
1.69868e-08
1.35328e-08
1.81478e-08
1.45859e-08
1.37007e-08
1.68125e-08
1.4862e-08
4.99714e-09
5.53366e-09
1.35183e-08
1.45866e-08
1.46999e-08
5.81982e-09
6.71174e-09
7.34606e-09
1.55353e-08
1.64576e-08
1.69144e-08
1.78406e-08
6.22845e-09
6.71539e-09
1.85106e-08
1.4962e-08
1.9353e-08
1.62604e-08
1.5255e-08
1.69755e-08
1.65229e-08
5.54664e-09
6.2928e-09
1.5119e-08
1.62955e-08
1.64632e-08
6.49635e-09
7.35616e-09
8.11871e-09
1.74154e-08
1.8365e-08
1.89642e-08
2.00482e-08
6.7255e-09
7.63125e-09
1.95931e-08
1.67418e-08
2.00324e-08
1.82087e-08
1.70048e-08
1.83131e-08
1.85579e-08
6.32482e-09
7.32233e-09
1.69616e-08
1.82559e-08
1.85827e-08
7.46612e-09
8.15472e-09
9.34411e-09
1.95358e-08
2.06636e-08
2.14977e-08
2.25726e-08
7.68171e-09
8.94201e-09
2.01751e-08
1.87466e-08
2.10233e-08
2.04561e-08
1.91273e-08
2.04328e-08
2.10259e-08
7.3779e-09
8.6439e-09
1.91741e-08
2.06823e-08
2.1094e-08
8.75367e-09
9.56225e-09
1.14124e-08
2.21938e-08
2.32116e-08
2.46141e-08
2.52013e-08
9.10573e-09
1.07998e-08
2.14494e-08
2.10482e-08
2.33366e-08
2.32175e-08
2.17046e-08
2.31846e-08
2.40927e-08
8.83276e-09
1.06072e-08
2.17769e-08
2.36642e-08
2.4181e-08
1.07234e-08
1.18061e-08
1.44015e-08
2.54856e-08
2.58334e-08
2.82246e-08
2.79137e-08
1.11484e-08
1.36389e-08
2.40696e-08
2.40094e-08
2.65775e-08
2.66601e-08
2.49612e-08
2.66321e-08
2.77484e-08
1.09953e-08
1.3661e-08
2.5058e-08
2.72157e-08
2.78931e-08
1.38753e-08
1.49903e-08
1.87535e-08
2.92635e-08
2.87521e-08
3.26627e-08
3.15427e-08
1.4215e-08
1.7964e-08
2.75964e-08
2.77101e-08
3.09958e-08
3.11263e-08
2.88467e-08
3.11917e-08
3.23372e-08
1.427e-08
1.81202e-08
2.8992e-08
3.16722e-08
3.25371e-08
1.83793e-08
1.9654e-08
2.49134e-08
3.38627e-08
3.2577e-08
3.79911e-08
3.63208e-08
1.88526e-08
2.41058e-08
3.22199e-08
3.23402e-08
3.6363e-08
3.64497e-08
3.3555e-08
3.67638e-08
3.77989e-08
1.90226e-08
2.43183e-08
3.37568e-08
3.70899e-08
3.80488e-08
2.44568e-08
2.62489e-08
3.43983e-08
3.95926e-08
3.78465e-08
4.50875e-08
4.30953e-08
2.54376e-08
3.36654e-08
3.79688e-08
3.8061e-08
4.33104e-08
4.34151e-08
3.93707e-08
4.37088e-08
4.46082e-08
2.56685e-08
3.39262e-08
3.96638e-08
4.41983e-08
4.49431e-08
3.37781e-08
3.66297e-08
4.99767e-08
4.7151e-08
4.50691e-08
5.44656e-08
5.2194e-08
3.59021e-08
4.93412e-08
4.52908e-08
4.53952e-08
5.23508e-08
5.24854e-08
4.66005e-08
5.26926e-08
5.34157e-08
3.61784e-08
4.97215e-08
4.69646e-08
5.34673e-08
5.40959e-08
4.88158e-08
5.36149e-08
7.48115e-08
5.73849e-08
5.50262e-08
6.75286e-08
6.50395e-08
5.29346e-08
7.39213e-08
5.51353e-08
5.52783e-08
6.49361e-08
6.52549e-08
5.60094e-08
6.5327e-08
6.54762e-08
5.33324e-08
7.44991e-08
5.67924e-08
6.61273e-08
6.62894e-08
7.36147e-08
8.05189e-08
1.14116e-07
7.12646e-08
6.89194e-08
8.4587e-08
8.30333e-08
7.96853e-08
1.13927e-07
6.87379e-08
6.91678e-08
8.27246e-08
8.33628e-08
6.92606e-08
8.31948e-08
8.32383e-08
8.03201e-08
1.14446e-07
7.00141e-08
8.36767e-08
8.38223e-08
1.14063e-07
1.23583e-07
1.81047e-07
9.03025e-08
8.89697e-08
1.13228e-07
1.12232e-07
1.23495e-07
1.80962e-07
8.86579e-08
8.9295e-08
1.11972e-07
1.125e-07
8.91467e-08
1.12419e-07
1.12305e-07
1.23912e-07
1.81032e-07
8.9695e-08
1.12657e-07
1.12732e-07
1.81199e-07
1.9631e-07
2.77182e-07
1.22855e-07
1.21938e-07
1.58623e-07
1.58055e-07
1.96181e-07
2.76887e-07
1.21711e-07
1.22191e-07
1.57917e-07
1.58279e-07
1.2198e-07
1.58102e-07
1.58034e-07
1.96224e-07
2.77126e-07
1.22343e-07
1.58454e-07
1.58198e-07
2.76977e-07
2.96654e-07
3.88862e-07
1.73184e-07
1.72751e-07
2.22991e-07
2.22854e-07
2.96371e-07
3.88744e-07
1.7263e-07
1.72966e-07
2.22744e-07
2.23009e-07
1.72715e-07
2.22756e-07
2.22797e-07
2.96657e-07
3.89042e-07
1.72829e-07
2.22991e-07
2.22808e-07
3.88824e-07
4.08946e-07
4.88016e-07
2.40588e-07
2.40512e-07
2.93009e-07
2.93036e-07
4.08853e-07
4.87966e-07
2.404e-07
2.40644e-07
2.92913e-07
2.93109e-07
2.40453e-07
2.92874e-07
2.92978e-07
4.09111e-07
4.88119e-07
2.40443e-07
2.92983e-07
2.92932e-07
4.88056e-07
5.0396e-07
5.58704e-07
3.09733e-07
3.09774e-07
3.54306e-07
3.54359e-07
5.03913e-07
5.58646e-07
3.09649e-07
3.09834e-07
3.54235e-07
3.54395e-07
3.09721e-07
3.54177e-07
3.54323e-07
5.04046e-07
5.58765e-07
3.09667e-07
3.54256e-07
3.54255e-07
5.58764e-07
5.69434e-07
5.96521e-07
3.6654e-07
3.66594e-07
3.93662e-07
3.93716e-07
5.69378e-07
5.96454e-07
3.66473e-07
3.66626e-07
3.93597e-07
3.93739e-07
3.66561e-07
3.93532e-07
3.93689e-07
5.69482e-07
5.96563e-07
3.66492e-07
3.93604e-07
3.93621e-07
5.96583e-07
6.01826e-07
6.09441e-07
3.99544e-07
3.99598e-07
4.09827e-07
4.09879e-07
6.01762e-07
6.09377e-07
3.99479e-07
3.99618e-07
4.09762e-07
4.09896e-07
3.99572e-07
4.09695e-07
4.09859e-07
6.0186e-07
6.09477e-07
3.99505e-07
4.0977e-07
4.09793e-07
6.09507e-07
6.11876e-07
6.12446e-07
4.11579e-07
4.11631e-07
4.14286e-07
4.14341e-07
6.11814e-07
6.12381e-07
4.11517e-07
4.11647e-07
4.14227e-07
4.14355e-07
4.11612e-07
4.14159e-07
4.14319e-07
6.11904e-07
6.12475e-07
4.11547e-07
4.1423e-07
4.14257e-07
6.12506e-07
6.14168e-07
6.13184e-07
4.14694e-07
4.14746e-07
4.15279e-07
4.15336e-07
6.14105e-07
6.13118e-07
4.14636e-07
4.14762e-07
4.15222e-07
4.15347e-07
4.14726e-07
4.15153e-07
4.1531e-07
6.1419e-07
6.1321e-07
4.14664e-07
4.15223e-07
4.15248e-07
6.13239e-07
6.14759e-07
6.13232e-07
4.15361e-07
4.15411e-07
4.1547e-07
4.15527e-07
6.14696e-07
6.13165e-07
4.15304e-07
4.15429e-07
4.15414e-07
4.15539e-07
4.15391e-07
4.15344e-07
4.15499e-07
6.1478e-07
6.13258e-07
4.15329e-07
4.15414e-07
4.15437e-07
6.13286e-07
6.14794e-07
6.13199e-07
4.15481e-07
4.15536e-07
4.15486e-07
4.15545e-07
6.14729e-07
6.1313e-07
4.15425e-07
4.1555e-07
4.15431e-07
4.15556e-07
4.15509e-07
4.1536e-07
4.15514e-07
6.14814e-07
6.13227e-07
4.15447e-07
4.15431e-07
4.15452e-07
6.13252e-07
6.14754e-07
6.13224e-07
4.15486e-07
4.15545e-07
4.1549e-07
4.15551e-07
6.14687e-07
6.13154e-07
4.15431e-07
4.15556e-07
4.15437e-07
4.15561e-07
4.15514e-07
4.15365e-07
4.15518e-07
6.14776e-07
6.13251e-07
4.15452e-07
4.15435e-07
4.15456e-07
6.13276e-07
6.14786e-07
6.13218e-07
4.1549e-07
4.15551e-07
4.15493e-07
4.15556e-07
6.1472e-07
6.13149e-07
4.15437e-07
4.15561e-07
4.1544e-07
4.15565e-07
4.15518e-07
4.15369e-07
4.15522e-07
6.14807e-07
6.13247e-07
4.15456e-07
4.15439e-07
4.1546e-07
6.13272e-07
6.14774e-07
6.13225e-07
4.15493e-07
4.15556e-07
4.15496e-07
4.15559e-07
6.14708e-07
6.13155e-07
4.1544e-07
4.15565e-07
4.15443e-07
4.15568e-07
4.15522e-07
4.15371e-07
4.15525e-07
6.14797e-07
6.13254e-07
4.1546e-07
4.15442e-07
4.15463e-07
6.13278e-07
6.14786e-07
6.13225e-07
4.15496e-07
4.15559e-07
4.15498e-07
4.15563e-07
6.14718e-07
6.13156e-07
4.15443e-07
4.15568e-07
4.15447e-07
4.15571e-07
4.15525e-07
4.15374e-07
4.15528e-07
6.14808e-07
6.13255e-07
4.15463e-07
4.15445e-07
4.15465e-07
6.13279e-07
6.14783e-07
6.13228e-07
4.15498e-07
4.15563e-07
4.15499e-07
4.15566e-07
6.14717e-07
6.1316e-07
4.15447e-07
4.15571e-07
4.15449e-07
4.15573e-07
4.15528e-07
4.15377e-07
4.1553e-07
6.14807e-07
6.13259e-07
4.15465e-07
4.15447e-07
4.15468e-07
6.13281e-07
6.14786e-07
6.13228e-07
4.15499e-07
4.15566e-07
4.15501e-07
4.15568e-07
6.14723e-07
6.13159e-07
4.15449e-07
4.15573e-07
4.15451e-07
4.15575e-07
4.1553e-07
4.15378e-07
4.15531e-07
6.14812e-07
6.13257e-07
4.15468e-07
4.15448e-07
4.15468e-07
6.13281e-07
6.14785e-07
6.13232e-07
4.155e-07
4.15568e-07
4.15502e-07
4.1557e-07
6.14722e-07
6.1316e-07
4.15451e-07
4.15574e-07
4.15454e-07
4.15577e-07
4.15531e-07
4.15382e-07
4.15534e-07
6.1481e-07
6.13259e-07
4.15468e-07
4.15451e-07
4.1547e-07
6.13281e-07
6.14788e-07
6.13236e-07
4.15501e-07
4.1557e-07
4.155e-07
4.1557e-07
6.14721e-07
6.13166e-07
4.15453e-07
4.15576e-07
4.15453e-07
4.15577e-07
4.15532e-07
4.15382e-07
4.15534e-07
6.14811e-07
6.13262e-07
4.1547e-07
4.15452e-07
4.15472e-07
6.13279e-07
6.14789e-07
6.13231e-07
4.155e-07
4.15568e-07
4.15499e-07
4.15565e-07
6.14727e-07
6.13166e-07
4.15455e-07
4.15577e-07
4.15455e-07
4.15576e-07
4.15534e-07
4.15379e-07
4.15532e-07
6.14814e-07
6.13255e-07
4.15472e-07
4.1545e-07
4.1547e-07
6.13291e-07
6.14785e-07
6.13235e-07
4.15499e-07
4.15565e-07
4.15499e-07
4.15565e-07
6.14723e-07
6.13172e-07
4.15454e-07
4.15576e-07
4.15456e-07
4.15577e-07
4.15532e-07
4.15378e-07
4.15534e-07
6.14808e-07
6.13263e-07
4.1547e-07
4.1545e-07
4.15471e-07
6.13286e-07
6.14784e-07
6.1325e-07
4.15498e-07
4.15563e-07
4.15501e-07
4.15565e-07
6.14725e-07
6.13179e-07
4.15455e-07
4.15576e-07
4.15458e-07
4.15578e-07
4.15532e-07
4.15379e-07
4.15535e-07
6.14811e-07
6.1327e-07
4.1547e-07
4.15452e-07
4.15473e-07
6.13272e-07
6.14805e-07
6.13227e-07
4.15498e-07
4.15563e-07
4.15501e-07
4.15565e-07
6.14742e-07
6.13146e-07
4.15456e-07
4.15577e-07
4.15458e-07
4.15578e-07
4.15534e-07
4.15378e-07
4.15533e-07
6.14828e-07
6.13242e-07
4.15471e-07
4.15452e-07
4.15472e-07
6.13282e-07
6.14797e-07
6.13196e-07
4.155e-07
4.15564e-07
4.155e-07
4.15562e-07
6.14719e-07
6.13132e-07
4.15458e-07
4.15578e-07
4.15456e-07
4.15577e-07
4.15533e-07
4.15376e-07
4.15533e-07
6.14807e-07
6.13231e-07
4.15472e-07
4.15451e-07
4.15472e-07
6.13269e-07
6.14752e-07
6.13226e-07
4.155e-07
4.15562e-07
4.155e-07
4.15562e-07
6.1468e-07
6.1318e-07
4.15456e-07
4.15577e-07
4.15455e-07
4.15576e-07
4.15533e-07
4.15375e-07
4.15534e-07
6.14776e-07
6.13269e-07
4.15472e-07
4.1545e-07
4.15471e-07
6.13225e-07
6.14749e-07
6.13283e-07
4.155e-07
4.15561e-07
4.15502e-07
4.15563e-07
6.14702e-07
6.13224e-07
4.15455e-07
4.15576e-07
4.15456e-07
4.15577e-07
4.15533e-07
4.15378e-07
4.15534e-07
6.14794e-07
6.13302e-07
4.15471e-07
4.1545e-07
4.1547e-07
6.13217e-07
6.14804e-07
6.13295e-07
4.15502e-07
4.15562e-07
4.15504e-07
4.15563e-07
6.14758e-07
6.13214e-07
4.15454e-07
4.15576e-07
4.15457e-07
4.15578e-07
4.15533e-07
4.15377e-07
4.15533e-07
6.14836e-07
6.13293e-07
4.1547e-07
4.15451e-07
4.15471e-07
6.1326e-07
6.14845e-07
6.13262e-07
4.15504e-07
4.15562e-07
4.15506e-07
4.15563e-07
6.14779e-07
6.1318e-07
4.15455e-07
4.15576e-07
4.15456e-07
4.15578e-07
4.15533e-07
4.15377e-07
4.15533e-07
6.14849e-07
6.1327e-07
4.1547e-07
4.1545e-07
4.15472e-07
6.1331e-07
6.14837e-07
6.13233e-07
4.15505e-07
4.15562e-07
4.15508e-07
4.15563e-07
6.14759e-07
6.13161e-07
4.15456e-07
4.15577e-07
4.15455e-07
4.15578e-07
4.15532e-07
4.15377e-07
4.15533e-07
6.14836e-07
6.1326e-07
4.1547e-07
4.15449e-07
4.15471e-07
6.13366e-07
6.14809e-07
6.1323e-07
4.15507e-07
4.15562e-07
4.1551e-07
4.15563e-07
6.14738e-07
6.1316e-07
4.15455e-07
4.15577e-07
4.15455e-07
4.15578e-07
4.15532e-07
4.15377e-07
4.15533e-07
6.14823e-07
6.13266e-07
4.15469e-07
4.15449e-07
4.15472e-07
6.13418e-07
6.14796e-07
6.13242e-07
4.15509e-07
4.15562e-07
4.15511e-07
4.15563e-07
6.14727e-07
6.1317e-07
4.15455e-07
4.15577e-07
4.15455e-07
4.15578e-07
4.15531e-07
4.15377e-07
4.15534e-07
6.14824e-07
6.13271e-07
4.15469e-07
4.1545e-07
4.15472e-07
6.13436e-07
6.14802e-07
6.13249e-07
4.1551e-07
4.15562e-07
4.15512e-07
4.15563e-07
6.14729e-07
6.13184e-07
4.15454e-07
4.15577e-07
4.15454e-07
4.15577e-07
4.15532e-07
4.15377e-07
4.15534e-07
6.14832e-07
6.13267e-07
4.15469e-07
4.15449e-07
4.15472e-07
6.13437e-07
6.14812e-07
6.13245e-07
4.15511e-07
4.15562e-07
4.15513e-07
4.15563e-07
6.14741e-07
6.1319e-07
4.15454e-07
4.15577e-07
4.15454e-07
4.15577e-07
4.15532e-07
4.15377e-07
4.15533e-07
6.14832e-07
6.13265e-07
4.1547e-07
4.15449e-07
4.15471e-07
6.13433e-07
6.14812e-07
6.13242e-07
4.15512e-07
4.15562e-07
4.15514e-07
4.15563e-07
6.14753e-07
6.13188e-07
4.15453e-07
4.15577e-07
4.15453e-07
4.15577e-07
4.15532e-07
4.15377e-07
4.15533e-07
6.1483e-07
6.13268e-07
4.1547e-07
4.15449e-07
4.1547e-07
6.1343e-07
6.14808e-07
6.1325e-07
4.15513e-07
4.15562e-07
4.15515e-07
4.15562e-07
6.14759e-07
6.13182e-07
4.15453e-07
4.15577e-07
4.15453e-07
4.15578e-07
4.15532e-07
4.15378e-07
4.15533e-07
6.14832e-07
6.13269e-07
4.15469e-07
4.15449e-07
4.15469e-07
6.13425e-07
6.14815e-07
6.13251e-07
4.15514e-07
4.15562e-07
4.15515e-07
4.15562e-07
6.14759e-07
6.13173e-07
4.15453e-07
4.15577e-07
4.15453e-07
4.15578e-07
4.15532e-07
4.15378e-07
4.15533e-07
6.14835e-07
6.13266e-07
4.15468e-07
4.15449e-07
4.15469e-07
6.1342e-07
6.14822e-07
6.13242e-07
4.15515e-07
4.15562e-07
4.15516e-07
4.15562e-07
6.14754e-07
6.13164e-07
4.15453e-07
4.15577e-07
4.15453e-07
4.15577e-07
4.15532e-07
4.15378e-07
4.15533e-07
6.14836e-07
6.13262e-07
4.15467e-07
4.15449e-07
4.15469e-07
6.13417e-07
6.14815e-07
6.13244e-07
4.15516e-07
4.15562e-07
4.15516e-07
4.15562e-07
6.14743e-07
6.13165e-07
4.15453e-07
4.15577e-07
4.15453e-07
4.15577e-07
4.15532e-07
4.15378e-07
4.15533e-07
6.14833e-07
6.13262e-07
4.15467e-07
4.1545e-07
4.15468e-07
6.13415e-07
6.14812e-07
6.13253e-07
4.15516e-07
4.15562e-07
4.15517e-07
4.15563e-07
6.14737e-07
6.13174e-07
4.15453e-07
4.15577e-07
4.15453e-07
4.15578e-07
4.15531e-07
4.15378e-07
4.15533e-07
6.14831e-07
6.13265e-07
4.15467e-07
4.15449e-07
4.15467e-07
6.13414e-07
6.14819e-07
6.13253e-07
4.15516e-07
4.15562e-07
4.15517e-07
4.15563e-07
6.14743e-07
6.13177e-07
4.15453e-07
4.15577e-07
4.15453e-07
4.15578e-07
4.15531e-07
4.15378e-07
4.15533e-07
6.14834e-07
6.13265e-07
4.15466e-07
4.15449e-07
4.15467e-07
6.13418e-07
6.14822e-07
6.13254e-07
4.15517e-07
4.15562e-07
4.15517e-07
4.15562e-07
6.14749e-07
6.13171e-07
4.15453e-07
4.15577e-07
4.15452e-07
4.15577e-07
4.15532e-07
4.15378e-07
4.15533e-07
6.14836e-07
6.13259e-07
4.15466e-07
4.15449e-07
4.15467e-07
6.13418e-07
6.14824e-07
6.13254e-07
4.15517e-07
4.15562e-07
4.15517e-07
4.15562e-07
6.14746e-07
6.1317e-07
4.15452e-07
4.15576e-07
4.15452e-07
4.15577e-07
4.15532e-07
4.15378e-07
4.15533e-07
6.14832e-07
6.13256e-07
4.15466e-07
4.15449e-07
4.15467e-07
6.13412e-07
6.14826e-07
6.13252e-07
4.15517e-07
4.15562e-07
4.15518e-07
4.15562e-07
6.14742e-07
6.13174e-07
4.15452e-07
4.15577e-07
4.15452e-07
4.15577e-07
4.15532e-07
4.15378e-07
4.15533e-07
6.14827e-07
6.13259e-07
4.15465e-07
4.15449e-07
4.15466e-07
6.13411e-07
6.14826e-07
6.13248e-07
4.15517e-07
4.15562e-07
4.15517e-07
4.15562e-07
6.14746e-07
6.13173e-07
4.15452e-07
4.15577e-07
4.15452e-07
4.15577e-07
4.15532e-07
4.15378e-07
4.15533e-07
6.14827e-07
6.13261e-07
4.15465e-07
4.15449e-07
4.15467e-07
6.13422e-07
6.14823e-07
6.13243e-07
4.15517e-07
4.15562e-07
4.15517e-07
4.15562e-07
6.14746e-07
6.13172e-07
4.15452e-07
4.15577e-07
4.15451e-07
4.15577e-07
4.15532e-07
4.15378e-07
4.15533e-07
6.14828e-07
6.13264e-07
4.15465e-07
4.15449e-07
4.15466e-07
6.13431e-07
6.14818e-07
6.13243e-07
4.15517e-07
4.15562e-07
4.15516e-07
4.15562e-07
6.14743e-07
6.13177e-07
4.15451e-07
4.15577e-07
4.1545e-07
4.15577e-07
4.15532e-07
4.15378e-07
4.15533e-07
6.14829e-07
6.13267e-07
4.15465e-07
4.15448e-07
4.15466e-07
6.13428e-07
6.14814e-07
6.13246e-07
4.15516e-07
4.15562e-07
4.15516e-07
4.15562e-07
6.14747e-07
6.13179e-07
4.1545e-07
4.15577e-07
4.1545e-07
4.15577e-07
4.15532e-07
4.15378e-07
4.15532e-07
6.14834e-07
6.13266e-07
4.15465e-07
4.15448e-07
4.15465e-07
6.1342e-07
6.14815e-07
6.1325e-07
4.15516e-07
4.15562e-07
4.15517e-07
4.15562e-07
6.14753e-07
6.13175e-07
4.1545e-07
4.15577e-07
4.1545e-07
4.15577e-07
4.15531e-07
4.15378e-07
4.15532e-07
6.14835e-07
6.13262e-07
4.15464e-07
4.15448e-07
4.15465e-07
6.13414e-07
6.14818e-07
6.13254e-07
4.15516e-07
4.15562e-07
4.15517e-07
4.15562e-07
6.14752e-07
6.13167e-07
4.1545e-07
4.15577e-07
4.1545e-07
4.15577e-07
4.15531e-07
4.15378e-07
4.15532e-07
6.14831e-07
6.13264e-07
4.15464e-07
4.15448e-07
4.15465e-07
6.13417e-07
6.14823e-07
6.13253e-07
4.15517e-07
4.15562e-07
4.15516e-07
4.15562e-07
6.14745e-07
6.13166e-07
4.1545e-07
4.15577e-07
4.1545e-07
4.15577e-07
4.15531e-07
4.15377e-07
4.15532e-07
6.14831e-07
6.13268e-07
4.15464e-07
4.15448e-07
4.15465e-07
6.13419e-07
6.14825e-07
6.13249e-07
4.15516e-07
4.15562e-07
4.15517e-07
4.15562e-07
6.1474e-07
6.13172e-07
4.1545e-07
4.15577e-07
4.1545e-07
4.15577e-07
4.15531e-07
4.15377e-07
4.15532e-07
6.14836e-07
6.13266e-07
4.15464e-07
4.15448e-07
4.15465e-07
6.13415e-07
6.14824e-07
6.13245e-07
4.15517e-07
4.15562e-07
4.15516e-07
4.15562e-07
6.14743e-07
6.13175e-07
4.1545e-07
4.15577e-07
4.1545e-07
4.15577e-07
4.15532e-07
4.15377e-07
4.15532e-07
6.14839e-07
6.13258e-07
4.15465e-07
4.15447e-07
4.15465e-07
6.13413e-07
6.14821e-07
6.13242e-07
4.15517e-07
4.15562e-07
4.15516e-07
4.15561e-07
6.14748e-07
6.13172e-07
4.1545e-07
4.15577e-07
4.1545e-07
4.15577e-07
4.15532e-07
4.15377e-07
4.15532e-07
6.14831e-07
6.13256e-07
4.15465e-07
4.15446e-07
4.15465e-07
6.13421e-07
6.14816e-07
6.13244e-07
4.15516e-07
4.15562e-07
4.15517e-07
4.15561e-07
6.14746e-07
6.13171e-07
4.15451e-07
4.15578e-07
4.15449e-07
4.15577e-07
4.15531e-07
4.15377e-07
4.15532e-07
6.14825e-07
6.13264e-07
4.15464e-07
4.15446e-07
4.15465e-07
6.13429e-07
6.14813e-07
6.13249e-07
4.15517e-07
4.15562e-07
4.15517e-07
4.1556e-07
6.14744e-07
6.13173e-07
4.1545e-07
4.15578e-07
4.15449e-07
4.15576e-07
4.15532e-07
4.15376e-07
4.15532e-07
6.1483e-07
6.13268e-07
4.15464e-07
4.15446e-07
4.15465e-07
6.13429e-07
6.14817e-07
6.13252e-07
4.15517e-07
4.15562e-07
4.15516e-07
4.1556e-07
6.14745e-07
6.13173e-07
4.15451e-07
4.15578e-07
4.15449e-07
4.15576e-07
4.15532e-07
4.15376e-07
4.15531e-07
6.14836e-07
6.13264e-07
4.15465e-07
4.15445e-07
4.15464e-07
6.13423e-07
6.14821e-07
6.13252e-07
4.15518e-07
4.15562e-07
4.15515e-07
4.1556e-07
6.14746e-07
6.13174e-07
4.15451e-07
4.15578e-07
4.15448e-07
4.15575e-07
4.15532e-07
4.15375e-07
4.15531e-07
6.14835e-07
6.13262e-07
4.15465e-07
4.15445e-07
4.15464e-07
6.13416e-07
6.14823e-07
6.13251e-07
4.15518e-07
4.15562e-07
4.15514e-07
4.15559e-07
6.14748e-07
6.13174e-07
4.15451e-07
4.15578e-07
4.15448e-07
4.15574e-07
4.15532e-07
4.15375e-07
4.1553e-07
6.14832e-07
6.13261e-07
4.15464e-07
4.15444e-07
4.15463e-07
6.13415e-07
6.14823e-07
6.13249e-07
4.15517e-07
4.15562e-07
4.15513e-07
4.15558e-07
6.1475e-07
6.1317e-07
4.1545e-07
4.15577e-07
4.15446e-07
4.15574e-07
4.15532e-07
4.15374e-07
4.15529e-07
6.14832e-07
6.1326e-07
4.15464e-07
4.15443e-07
4.15462e-07
6.13414e-07
6.14823e-07
6.13247e-07
4.15517e-07
4.15561e-07
4.15513e-07
4.15557e-07
6.14747e-07
6.13167e-07
4.1545e-07
4.15577e-07
4.15446e-07
4.15573e-07
4.15532e-07
4.15373e-07
4.15528e-07
6.1483e-07
6.13262e-07
4.15465e-07
4.15442e-07
4.15461e-07
6.13407e-07
6.14822e-07
6.13246e-07
4.15516e-07
4.15561e-07
4.15512e-07
4.15556e-07
6.14743e-07
6.13167e-07
4.15449e-07
4.15577e-07
4.15445e-07
4.15572e-07
4.15532e-07
4.15372e-07
4.15527e-07
6.14831e-07
6.13264e-07
4.15464e-07
4.15441e-07
4.1546e-07
6.13411e-07
6.14821e-07
6.13244e-07
4.15517e-07
4.15562e-07
4.15511e-07
4.15555e-07
6.14741e-07
6.13171e-07
4.1545e-07
4.15577e-07
4.15444e-07
4.15571e-07
4.15532e-07
4.15372e-07
4.15526e-07
6.14833e-07
6.13263e-07
4.15464e-07
4.1544e-07
4.15459e-07
6.13423e-07
6.1482e-07
6.1324e-07
4.15518e-07
4.15563e-07
4.15509e-07
4.15554e-07
6.14743e-07
6.13173e-07
4.15451e-07
4.15578e-07
4.15442e-07
4.15569e-07
4.15533e-07
4.1537e-07
4.15525e-07
6.14833e-07
6.1326e-07
4.15465e-07
4.15438e-07
4.15457e-07
6.13426e-07
6.14815e-07
6.1324e-07
4.15519e-07
4.15564e-07
4.15507e-07
4.15552e-07
6.14746e-07
6.13172e-07
4.15452e-07
4.15579e-07
4.1544e-07
4.15568e-07
4.15534e-07
4.15368e-07
4.15523e-07
6.14832e-07
6.13258e-07
4.15466e-07
4.15436e-07
4.15455e-07
6.13426e-07
6.14812e-07
6.13244e-07
4.1552e-07
4.15565e-07
4.15505e-07
4.1555e-07
6.14747e-07
6.13174e-07
4.15454e-07
4.15581e-07
4.15438e-07
4.15565e-07
4.15536e-07
4.15365e-07
4.15521e-07
6.1483e-07
6.13258e-07
4.15468e-07
4.15434e-07
4.15452e-07
6.13427e-07
6.14815e-07
6.13247e-07
4.15522e-07
4.15567e-07
4.15502e-07
4.15546e-07
6.1475e-07
6.13173e-07
4.15456e-07
4.15582e-07
4.15435e-07
4.15561e-07
4.15538e-07
4.15362e-07
4.15517e-07
6.14825e-07
6.13258e-07
4.15469e-07
4.1543e-07
4.15448e-07
6.13419e-07
6.1482e-07
6.13243e-07
4.15524e-07
4.15569e-07
4.15495e-07
4.1554e-07
6.14752e-07
6.13162e-07
4.15458e-07
4.15584e-07
4.15429e-07
4.15554e-07
4.15539e-07
4.15355e-07
4.15511e-07
6.14823e-07
6.13259e-07
4.1547e-07
4.15423e-07
4.15442e-07
6.13408e-07
6.14817e-07
6.13235e-07
4.15525e-07
4.1557e-07
4.15486e-07
4.1553e-07
6.14743e-07
6.13154e-07
4.15459e-07
4.15584e-07
4.15419e-07
4.15545e-07
4.1554e-07
4.15345e-07
4.15502e-07
6.14823e-07
6.13256e-07
4.15471e-07
4.15414e-07
4.15433e-07
6.13412e-07
6.14807e-07
6.13228e-07
4.15525e-07
4.15569e-07
4.15471e-07
4.15515e-07
6.1473e-07
6.1315e-07
4.15458e-07
4.15584e-07
4.15405e-07
4.1553e-07
4.15539e-07
4.15331e-07
4.15487e-07
6.1482e-07
6.13244e-07
4.1547e-07
4.15399e-07
4.15418e-07
6.13412e-07
6.14796e-07
6.13217e-07
4.15521e-07
4.15565e-07
4.15449e-07
4.15493e-07
6.14722e-07
6.1314e-07
4.15455e-07
4.1558e-07
4.15384e-07
4.15509e-07
4.15536e-07
4.15309e-07
4.15464e-07
6.14808e-07
6.1323e-07
4.15467e-07
4.15376e-07
4.15395e-07
6.13396e-07
6.14778e-07
6.13206e-07
4.15513e-07
4.15557e-07
4.15413e-07
4.15454e-07
6.14705e-07
6.13128e-07
4.15447e-07
4.15573e-07
4.15348e-07
4.15473e-07
4.15528e-07
4.15271e-07
4.15426e-07
6.14792e-07
6.13224e-07
4.15459e-07
4.1534e-07
4.15355e-07
6.13384e-07
6.14745e-07
6.1307e-07
4.15492e-07
4.1553e-07
4.1513e-07
4.15166e-07
6.14673e-07
6.12994e-07
4.15425e-07
4.15549e-07
4.15058e-07
4.1518e-07
4.15503e-07
4.14989e-07
4.15143e-07
6.14762e-07
6.13083e-07
4.1543e-07
4.15049e-07
4.15061e-07
6.13185e-07
6.14511e-07
5.99194e-07
4.15397e-07
4.15433e-07
4.02522e-07
4.02558e-07
6.14442e-07
5.99149e-07
4.15325e-07
4.15453e-07
4.02491e-07
4.02536e-07
4.15414e-07
4.02447e-07
4.02525e-07
6.14521e-07
5.99194e-07
4.15327e-07
4.02466e-07
4.02482e-07
5.99203e-07
5.82605e-07
3.89642e-07
3.89673e-07
5.82575e-07
3.89623e-07
3.8965e-07
1.90951e-07
1.90944e-07
1.90946e-07
3.89642e-07
5.8261e-07
3.89616e-07
1.05176e-07
2.12844e-08
7.44926e-08
7.46393e-08
9.77512e-10
7.14594e-09
1.82804e-08
4.73011e-08
1.03052e-09
6.60831e-09
4.65477e-08
1.25093e-08
5.97882e-09
8.79005e-09
3.87421e-09
6.71788e-09
1.66392e-07
4.51168e-09
2.49374e-07
1.58393e-06
3.14262e-06
6.70596e-09
1.73057e-07
4.81065e-09
2.56597e-07
4.55208e-08
4.47676e-08
4.4917e-08
4.54833e-08
4.55919e-08
4.48248e-08
4.49745e-08
9.8625e-10
9.47191e-08
2.21071e-08
9.7564e-09
9.78065e-10
7.33784e-08
2.20492e-08
1.66797e-06
3.27023e-06
1.03829e-09
2.09928e-08
8.7552e-08
7.84668e-09
1.03259e-09
2.10148e-08
6.66047e-08
2.05556e-07
2.1538e-07
5.46784e-09
1.73028e-07
1.85244e-07
1.69317e-08
4.64127e-07
1.07224e-08
6.46538e-07
7.02566e-06
1.00681e-05
1.72062e-08
4.81962e-07
1.18536e-08
6.775e-07
4.59572e-08
4.51868e-08
4.53445e-08
4.6999e-08