/*--------------------------------*- C++ -*----------------------------------*\
| =========                 |                                                 |
| \\      /  F ield         | OpenFOAM: The Open Source CFD Toolbox           |
|  \\    /   O peration     | Version:  v1906                                 |
|   \\  /    A nd           | Web:      www.OpenFOAM.com                      |
|    \\/     M anipulation  |                                                 |
\*---------------------------------------------------------------------------*/
FoamFile
{
    version     2.0;
    format      ascii;
    class       volScalarField;
    location    "112.5";
    object      k;
}
// * * * * * * * * * * * * * * * * * * * * * * * * * * * * * * * * * * * * * //

dimensions      [0 2 -2 0 0 0 0];


internalField   nonuniform List<scalar> 
171728
(
4.63588e-06
7.24368e-07
6.70674e-07
3.46497e-07
4.6961e-06
7.66815e-07
7.10917e-07
3.43057e-07
4.85925e-06
8.29911e-07
7.70231e-07
3.50919e-07
5.01726e-06
9.0332e-07
8.34787e-07
3.64356e-07
5.17195e-06
9.91291e-07
9.0561e-07
3.8253e-07
5.32416e-06
1.09697e-06
9.69639e-07
4.00542e-07
5.47494e-06
1.21913e-06
1.06404e-06
4.15797e-07
5.62232e-06
1.3596e-06
1.17827e-06
4.40792e-07
5.76875e-06
1.51114e-06
1.30533e-06
4.82284e-07
5.91124e-06
1.67939e-06
1.45257e-06
5.36776e-07
6.05004e-06
1.75374e-06
1.61616e-06
6.00995e-07
6.18073e-06
1.85416e-06
1.80037e-06
6.83604e-07
6.31827e-06
2.03052e-06
2.01003e-06
7.92968e-07
6.47999e-06
2.25666e-06
2.25849e-06
9.35255e-07
6.65792e-06
2.53659e-06
2.56326e-06
1.14723e-06
6.8238e-06
2.8819e-06
2.90286e-06
1.44786e-06
7.00267e-06
3.28027e-06
3.29767e-06
1.82822e-06
7.20164e-06
3.7393e-06
3.76341e-06
2.28167e-06
7.43209e-06
4.27466e-06
4.31131e-06
2.91395e-06
7.72563e-06
4.95211e-06
4.99342e-06
3.82814e-06
8.08799e-06
5.81033e-06
5.84838e-06
5.16087e-06
8.56385e-06
6.96264e-06
6.98621e-06
7.07668e-06
9.15323e-06
8.58818e-06
8.60048e-06
9.96159e-06
1.00216e-05
1.09051e-05
1.09209e-05
1.37288e-05
1.12506e-05
1.39171e-05
1.39273e-05
1.79461e-05
1.26499e-05
1.70192e-05
1.70236e-05
2.15532e-05
1.41146e-05
1.97079e-05
1.97103e-05
2.42309e-05
1.52625e-05
2.14062e-05
2.14082e-05
2.5747e-05
1.58381e-05
2.20806e-05
2.20826e-05
2.62399e-05
1.60323e-05
2.22704e-05
2.22722e-05
2.63695e-05
1.6081e-05
2.23132e-05
2.2315e-05
2.64e-05
1.60908e-05
2.23211e-05
2.23228e-05
2.64079e-05
1.60923e-05
2.23218e-05
2.23235e-05
2.64043e-05
1.60927e-05
2.23222e-05
2.2324e-05
2.64064e-05
1.60929e-05
2.23223e-05
2.2324e-05
2.64057e-05
1.60931e-05
2.23224e-05
2.23242e-05
2.64062e-05
1.60933e-05
2.23225e-05
2.23243e-05
2.64062e-05
1.60934e-05
2.23228e-05
2.23245e-05
2.64064e-05
1.60935e-05
2.23228e-05
2.23246e-05
2.64063e-05
1.60936e-05
2.23229e-05
2.23246e-05
2.64064e-05
1.60937e-05
2.2323e-05
2.23247e-05
2.64062e-05
1.60938e-05
2.23229e-05
2.23247e-05
2.64065e-05
1.60938e-05
2.23229e-05
2.23246e-05
2.64066e-05
1.60939e-05
2.23229e-05
2.23246e-05
2.64062e-05
1.60939e-05
2.2323e-05
2.23246e-05
2.64065e-05
1.60939e-05
2.2323e-05
2.23246e-05
2.64068e-05
1.60939e-05
2.23229e-05
2.23246e-05
2.64056e-05
1.60939e-05
2.2323e-05
2.23245e-05
2.64042e-05
1.60939e-05
2.2323e-05
2.23245e-05
2.64041e-05
1.60939e-05
2.2323e-05
2.23246e-05
2.64047e-05
1.60939e-05
2.2323e-05
2.23246e-05
2.64054e-05
1.60939e-05
2.2323e-05
2.23245e-05
2.64063e-05
1.60939e-05
2.23231e-05
2.23245e-05
2.64068e-05
1.60939e-05
2.23231e-05
2.23245e-05
2.64067e-05
1.6094e-05
2.23231e-05
2.23245e-05
2.64064e-05
1.6094e-05
2.23231e-05
2.23246e-05
2.6406e-05
1.6094e-05
2.23231e-05
2.23246e-05
2.64056e-05
1.6094e-05
2.23231e-05
2.23245e-05
2.64054e-05
1.6094e-05
2.23231e-05
2.23246e-05
2.64053e-05
1.6094e-05
2.23231e-05
2.23246e-05
2.64052e-05
1.6094e-05
2.23231e-05
2.23246e-05
2.64051e-05
1.6094e-05
2.23231e-05
2.23246e-05
2.64052e-05
1.6094e-05
2.23231e-05
2.23246e-05
2.64053e-05
1.6094e-05
2.23231e-05
2.23245e-05
2.64051e-05
1.6094e-05
2.23231e-05
2.23245e-05
2.64049e-05
1.60939e-05
2.23231e-05
2.23245e-05
2.64052e-05
1.60939e-05
2.23231e-05
2.23246e-05
2.64056e-05
1.60939e-05
2.23231e-05
2.23245e-05
2.64057e-05
1.60939e-05
2.23231e-05
2.23245e-05
2.64054e-05
1.60939e-05
2.23231e-05
2.23245e-05
2.64051e-05
1.60939e-05
2.23231e-05
2.23245e-05
2.64051e-05
1.6094e-05
2.23231e-05
2.23245e-05
2.64054e-05
1.6094e-05
2.23231e-05
2.23245e-05
2.64053e-05
1.6094e-05
2.23231e-05
2.23245e-05
2.6405e-05
1.6094e-05
2.23231e-05
2.23245e-05
2.64051e-05
1.6094e-05
2.23231e-05
2.23244e-05
2.64055e-05
1.6094e-05
2.23231e-05
2.23244e-05
2.64057e-05
1.6094e-05
2.23231e-05
2.23244e-05
2.64055e-05
1.6094e-05
2.23231e-05
2.23244e-05
2.64052e-05
1.6094e-05
2.23231e-05
2.23244e-05
2.64052e-05
1.6094e-05
2.23231e-05
2.23245e-05
2.64053e-05
1.6094e-05
2.23232e-05
2.23245e-05
2.6405e-05
1.60941e-05
2.23232e-05
2.23245e-05
2.64049e-05
1.60941e-05
2.23233e-05
2.23246e-05
2.64054e-05
1.60941e-05
2.23233e-05
2.23247e-05
2.64056e-05
1.60942e-05
2.23234e-05
2.23247e-05
2.64056e-05
1.60942e-05
2.23236e-05
2.23249e-05
2.64057e-05
1.60942e-05
2.23237e-05
2.2325e-05
2.64057e-05
1.60943e-05
2.23239e-05
2.23252e-05
2.64053e-05
1.60943e-05
2.23242e-05
2.23255e-05
2.64054e-05
1.60944e-05
2.23247e-05
2.2326e-05
2.64059e-05
1.60945e-05
2.23255e-05
2.23268e-05
2.64058e-05
1.60945e-05
2.23266e-05
2.23279e-05
2.64051e-05
1.60877e-05
2.23227e-05
2.23239e-05
2.64006e-05
1.58973e-05
2.16365e-05
2.16365e-05
2.57598e-05
3.88528e-07
4.84434e-07
4.51263e-07
3.73774e-07
4.96667e-07
5.53955e-07
4.72786e-06
4.73185e-06
4.70781e-06
4.70871e-06
5.28327e-07
4.33204e-07
4.25346e-07
5.3128e-07
5.08432e-07
3.49557e-07
3.8654e-07
3.83706e-07
6.27072e-07
6.03625e-07
6.50282e-07
6.33892e-07
3.7065e-07
3.67973e-07
6.64272e-07
7.06914e-07
6.98509e-07
7.32438e-07
5.80364e-07
7.52435e-07
6.11737e-07
4.24733e-07
4.29986e-07
6.55523e-07
6.96257e-07
6.81739e-07
3.44288e-07
3.82298e-07
3.8569e-07
6.63786e-07
6.50123e-07
7.06018e-07
7.0217e-07
3.66295e-07
3.68679e-07
7.15664e-07
7.4594e-07
7.7062e-07
7.87455e-07
6.28043e-07
8.13408e-07
6.80204e-07
4.29105e-07
4.3581e-07
6.95596e-07
7.5479e-07
7.39272e-07
3.52036e-07
3.84293e-07
3.9171e-07
7.21921e-07
7.21833e-07
7.73762e-07
7.82655e-07
3.66679e-07
3.71582e-07
7.90444e-07
8.01859e-07
8.5112e-07
8.45852e-07
6.99633e-07
8.83623e-07
7.60976e-07
4.3432e-07
4.34445e-07
7.54824e-07
8.2172e-07
8.01524e-07
3.65341e-07
3.90213e-07
4.03952e-07
7.90775e-07
8.04752e-07
8.49471e-07
8.737e-07
3.69448e-07
3.80002e-07
8.71343e-07
8.6239e-07
9.34815e-07
9.12028e-07
7.82992e-07
9.67997e-07
8.50836e-07
4.30993e-07
4.24616e-07
8.18743e-07
8.8675e-07
8.6913e-07
3.83668e-07
4.02178e-07
4.17269e-07
8.68521e-07
8.98142e-07
9.33199e-07
9.77462e-07
3.78029e-07
3.99536e-07
9.57585e-07
9.30041e-07
1.02827e-06
9.89856e-07
8.74591e-07
1.07015e-06
9.49289e-07
4.21252e-07
4.27269e-07
8.86447e-07
9.53634e-07
9.41969e-07
4.0229e-07
4.15327e-07
4.38223e-07
9.56992e-07
1.00302e-06
1.03092e-06
1.08536e-06
3.97821e-07
4.32762e-07
1.05279e-06
1.01094e-06
1.13319e-06
1.08267e-06
9.73956e-07
1.187e-06
1.05356e-06
4.24488e-07
4.25597e-07
9.62125e-07
1.03886e-06
1.03234e-06
4.17937e-07
4.36306e-07
4.6564e-07
1.05756e-06
1.11396e-06
1.14615e-06
1.20474e-06
4.3149e-07
4.77028e-07
1.15939e-06
1.10642e-06
1.24662e-06
1.1882e-06
1.07998e-06
1.32395e-06
1.16288e-06
4.20112e-07
4.25858e-07
1.05737e-06
1.14865e-06
1.13908e-06
4.42367e-07
4.63962e-07
5.10686e-07
1.17865e-06
1.23514e-06
1.28426e-06
1.32681e-06
4.75981e-07
5.31947e-07
1.27853e-06
1.21751e-06
1.37936e-06
1.30901e-06
1.19379e-06
1.47153e-06
1.28705e-06
4.23487e-07
4.62038e-07
1.16937e-06
1.27094e-06
1.26584e-06
4.83333e-07
5.09751e-07
5.72448e-07
1.32186e-06
1.36094e-06
1.43582e-06
1.46584e-06
5.30968e-07
5.89856e-07
1.41836e-06
1.34394e-06
1.5399e-06
1.44973e-06
1.32122e-06
1.64089e-06
1.42623e-06
4.60649e-07
5.17842e-07
1.29996e-06
1.41581e-06
1.40981e-06
5.37705e-07
5.71914e-07
6.5471e-07
1.47696e-06
1.50382e-06
1.6135e-06
1.62631e-06
5.88141e-07
6.38218e-07
1.57963e-06
1.48536e-06
1.72335e-06
1.60037e-06
1.46315e-06
1.74166e-06
1.58554e-06
5.17025e-07
5.89964e-07
1.44865e-06
1.57439e-06
1.57198e-06
6.01585e-07
6.55835e-07
7.5488e-07
1.65884e-06
1.66891e-06
1.80381e-06
1.81128e-06
6.35791e-07
7.01642e-07
1.7773e-06
1.63997e-06
1.91543e-06
1.77517e-06
1.62566e-06
1.82143e-06
1.75399e-06
5.89856e-07
6.8146e-07
1.61472e-06
1.75268e-06
1.75062e-06
6.83045e-07
7.5518e-07
8.50206e-07
1.85583e-06
1.86519e-06
2.0139e-06
2.03882e-06
7.0148e-07
8.11517e-07
1.95074e-06
1.82539e-06
2.04248e-06
1.97282e-06
1.80245e-06
1.98221e-06
1.95692e-06
6.82739e-07
7.97421e-07
1.80049e-06
1.95354e-06
1.96118e-06
7.90589e-07
8.51468e-07
9.92727e-07
2.07219e-06
2.10318e-06
2.27021e-06
2.30806e-06
8.14805e-07
9.66115e-07
2.07678e-06
2.02535e-06
2.20823e-06
2.19144e-06
2.01307e-06
2.19672e-06
2.19725e-06
8.00483e-07
9.4433e-07
2.01944e-06
2.19627e-06
2.2066e-06
9.29696e-07
9.99984e-07
1.20547e-06
2.33781e-06
2.37565e-06
2.56604e-06
2.58605e-06
9.72504e-07
1.16715e-06
2.25881e-06
2.24606e-06
2.45659e-06
2.44989e-06
2.26108e-06
2.46398e-06
2.48701e-06
9.50231e-07
1.14644e-06
2.27073e-06
2.48475e-06
2.49716e-06
1.13429e-06
1.21796e-06
1.48164e-06
2.64682e-06
2.65062e-06
2.89099e-06
2.84227e-06
1.17791e-06
1.42844e-06
2.52942e-06
2.52531e-06
2.76194e-06
2.7691e-06
2.56857e-06
2.78271e-06
2.82007e-06
1.15881e-06
1.42909e-06
2.5789e-06
2.80887e-06
2.83683e-06
1.42732e-06
1.50041e-06
1.84238e-06
2.98266e-06
2.92118e-06
3.26993e-06
3.18758e-06
1.44736e-06
1.79386e-06
2.85598e-06
2.86587e-06
3.15019e-06
3.16526e-06
2.91811e-06
3.18301e-06
3.21844e-06
1.44914e-06
1.80154e-06
2.93473e-06
3.197e-06
3.23623e-06
1.80201e-06
1.86895e-06
2.27837e-06
3.36612e-06
3.28111e-06
3.68443e-06
3.58974e-06
1.82048e-06
2.23601e-06
3.25116e-06
3.26667e-06
3.58428e-06
3.59767e-06
3.31681e-06
3.61376e-06
3.65486e-06
1.82851e-06
2.24556e-06
3.33599e-06
3.63708e-06
3.67241e-06
2.23399e-06
2.32519e-06
2.85818e-06
3.80594e-06
3.70846e-06
4.20374e-06
4.1019e-06
2.28088e-06
2.82776e-06
3.70828e-06
3.7216e-06
4.10665e-06
4.1186e-06
3.77942e-06
4.13645e-06
4.15569e-06
2.29202e-06
2.83987e-06
3.79865e-06
4.16914e-06
4.184e-06
2.80481e-06
2.96959e-06
3.71286e-06
4.34765e-06
4.2441e-06
4.84223e-06
4.73583e-06
2.9391e-06
3.67725e-06
4.2492e-06
4.26027e-06
4.74257e-06
4.75378e-06
4.29195e-06
4.76355e-06
4.78274e-06
2.95284e-06
3.70081e-06
4.32132e-06
4.80576e-06
4.8124e-06
3.65241e-06
3.88572e-06
4.94156e-06
5.03182e-06
4.92405e-06
5.66323e-06
5.5524e-06
3.84765e-06
4.89754e-06
4.93102e-06
4.9425e-06
5.55615e-06
5.56943e-06
4.97233e-06
5.57985e-06
5.59394e-06
3.87295e-06
4.9268e-06
5.00313e-06
5.61836e-06
5.62749e-06
4.90621e-06
5.19267e-06
6.69834e-06
5.89463e-06
5.78728e-06
6.69951e-06
6.62001e-06
5.15049e-06
6.67716e-06
5.78839e-06
5.80362e-06
6.61354e-06
6.63429e-06
5.82341e-06
6.63274e-06
6.64034e-06
5.18033e-06
6.70065e-06
5.8563e-06
6.66152e-06
6.66783e-06
6.69094e-06
7.07898e-06
9.39227e-06
7.02201e-06
6.95261e-06
8.1755e-06
8.12532e-06
7.06212e-06
9.38382e-06
6.94462e-06
6.96583e-06
8.11736e-06
8.13583e-06
6.96876e-06
8.13502e-06
8.13203e-06
7.08258e-06
9.39169e-06
6.99443e-06
8.14762e-06
8.15185e-06
9.39585e-06
9.96052e-06
1.30324e-05
8.62546e-06
8.57956e-06
1.02663e-05
1.02361e-05
9.95179e-06
1.30198e-05
8.57285e-06
8.58989e-06
1.02329e-05
1.02473e-05
8.58421e-06
1.02416e-05
1.02369e-05
9.95822e-06
1.30318e-05
8.6015e-06
1.02571e-05
1.02461e-05
1.3023e-05
1.37382e-05
1.72261e-05
1.0926e-05
1.09018e-05
1.31468e-05
1.31372e-05
1.37262e-05
1.72213e-05
1.08994e-05
1.09131e-05
1.31356e-05
1.31461e-05
1.0902e-05
1.3137e-05
1.31362e-05
1.37402e-05
1.72344e-05
1.09089e-05
1.31491e-05
1.31385e-05
1.72231e-05
1.79485e-05
2.09678e-05
1.39251e-05
1.39188e-05
1.62619e-05
1.62608e-05
1.79448e-05
2.09664e-05
1.39172e-05
1.39264e-05
1.62587e-05
1.62648e-05
1.39175e-05
1.62582e-05
1.62598e-05
1.79562e-05
2.09718e-05
1.3919e-05
1.62635e-05
1.62594e-05
2.0968e-05
2.1553e-05
2.38164e-05
1.70228e-05
1.70224e-05
1.9114e-05
1.91144e-05
2.15518e-05
2.38152e-05
1.70203e-05
1.70255e-05
1.91122e-05
1.91157e-05
1.70217e-05
1.91114e-05
1.91145e-05
2.15563e-05
2.3818e-05
1.7021e-05
1.91141e-05
1.91132e-05
2.38177e-05
2.42299e-05
2.55275e-05
1.97105e-05
1.9711e-05
2.10937e-05
2.10941e-05
2.42287e-05
2.55261e-05
1.9709e-05
1.9712e-05
2.10924e-05
2.10946e-05
1.97113e-05
2.10914e-05
2.10946e-05
2.4231e-05
2.55278e-05
1.97099e-05
2.10933e-05
2.10935e-05
2.55285e-05
2.57462e-05
2.61611e-05
2.14086e-05
2.1409e-05
2.19803e-05
2.19806e-05
2.57448e-05
2.61598e-05
2.14073e-05
2.14094e-05
2.19791e-05
2.19807e-05
2.14097e-05
2.1978e-05
2.19816e-05
2.57463e-05
2.61615e-05
2.14085e-05
2.198e-05
2.19805e-05
2.61628e-05
2.62383e-05
2.63271e-05
2.20828e-05
2.20831e-05
2.2247e-05
2.22473e-05
2.6237e-05
2.63257e-05
2.20818e-05
2.20832e-05
2.22461e-05
2.22474e-05
2.20842e-05
2.22449e-05
2.22483e-05
2.62386e-05
2.63272e-05
2.20831e-05
2.22467e-05
2.22474e-05
2.63285e-05
2.63682e-05
2.6367e-05
2.22725e-05
2.22727e-05
2.23098e-05
2.23101e-05
2.63668e-05
2.63656e-05
2.22716e-05
2.22728e-05
2.23089e-05
2.23101e-05
2.22738e-05
2.23077e-05
2.2311e-05
2.63682e-05
2.6367e-05
2.22728e-05
2.23094e-05
2.231e-05
2.63682e-05
2.63989e-05
2.63777e-05
2.23153e-05
2.23155e-05
2.23225e-05
2.23229e-05
2.63975e-05
2.63762e-05
2.23144e-05
2.23156e-05
2.23217e-05
2.23229e-05
2.23164e-05
2.23204e-05
2.23236e-05
2.63987e-05
2.63776e-05
2.23155e-05
2.23221e-05
2.23226e-05
2.63787e-05
2.6407e-05
2.63739e-05
2.23232e-05
2.23235e-05
2.23238e-05
2.23241e-05
2.64056e-05
2.63724e-05
2.23224e-05
2.23235e-05
2.2323e-05
2.23241e-05
2.23242e-05
2.23217e-05
2.23248e-05
2.64068e-05
2.63739e-05
2.23233e-05
2.23234e-05
2.23238e-05
2.63748e-05
2.64034e-05
2.6376e-05
2.23239e-05
2.23242e-05
2.23242e-05
2.23246e-05
2.64019e-05
2.63745e-05
2.23231e-05
2.23242e-05
2.23235e-05
2.23246e-05
2.23249e-05
2.23221e-05
2.23251e-05
2.64033e-05
2.63759e-05
2.23239e-05
2.23239e-05
2.23242e-05
2.63768e-05
2.64056e-05
2.63754e-05
2.23243e-05
2.23247e-05
2.23243e-05
2.23247e-05
2.64041e-05
2.63739e-05
2.23236e-05
2.23247e-05
2.23237e-05
2.23247e-05
2.23252e-05
2.23223e-05
2.23253e-05
2.64054e-05
2.63754e-05
2.23242e-05
2.2324e-05
2.23243e-05
2.63763e-05
2.64048e-05
2.63758e-05
2.23243e-05
2.23247e-05
2.23244e-05
2.23248e-05
2.64034e-05
2.63743e-05
2.23237e-05
2.23247e-05
2.23238e-05
2.23248e-05
2.23253e-05
2.23223e-05
2.23254e-05
2.64047e-05
2.63758e-05
2.23243e-05
2.23241e-05
2.23244e-05
2.63767e-05
2.64054e-05
2.63758e-05
2.23244e-05
2.23248e-05
2.23246e-05
2.2325e-05
2.64039e-05
2.63743e-05
2.23238e-05
2.23248e-05
2.2324e-05
2.2325e-05
2.23254e-05
2.23225e-05
2.23256e-05
2.64053e-05
2.63758e-05
2.23244e-05
2.23243e-05
2.23246e-05
2.63767e-05
2.64053e-05
2.6376e-05
2.23246e-05
2.2325e-05
2.23247e-05
2.23252e-05
2.64039e-05
2.63745e-05
2.23241e-05
2.2325e-05
2.23242e-05
2.23252e-05
2.23256e-05
2.23227e-05
2.23257e-05
2.64052e-05
2.63761e-05
2.23246e-05
2.23244e-05
2.23247e-05
2.63769e-05
2.64054e-05
2.6376e-05
2.23247e-05
2.23252e-05
2.23248e-05
2.23253e-05
2.64041e-05
2.63745e-05
2.23242e-05
2.23252e-05
2.23242e-05
2.23253e-05
2.23257e-05
2.23228e-05
2.23258e-05
2.64055e-05
2.6376e-05
2.23247e-05
2.23245e-05
2.23247e-05
2.63768e-05
2.64054e-05
2.63761e-05
2.23248e-05
2.23253e-05
2.23248e-05
2.23253e-05
2.64041e-05
2.63745e-05
2.23242e-05
2.23253e-05
2.23243e-05
2.23254e-05
2.23257e-05
2.23229e-05
2.23259e-05
2.64054e-05
2.63761e-05
2.23247e-05
2.23246e-05
2.23248e-05
2.63769e-05
2.64055e-05
2.63762e-05
2.23248e-05
2.23253e-05
2.23248e-05
2.23254e-05
2.64041e-05
2.63747e-05
2.23244e-05
2.23254e-05
2.23243e-05
2.23254e-05
2.23258e-05
2.2323e-05
2.23259e-05
2.64054e-05
2.63762e-05
2.23248e-05
2.23247e-05
2.23249e-05
2.63768e-05
2.64056e-05
2.63761e-05
2.23248e-05
2.23253e-05
2.23248e-05
2.23253e-05
2.64042e-05
2.63746e-05
2.23244e-05
2.23254e-05
2.23244e-05
2.23254e-05
2.23259e-05
2.23229e-05
2.23259e-05
2.64056e-05
2.6376e-05
2.23249e-05
2.23246e-05
2.23249e-05
2.63771e-05
2.64055e-05
2.63762e-05
2.23248e-05
2.23253e-05
2.23248e-05
2.23253e-05
2.64041e-05
2.63748e-05
2.23244e-05
2.23254e-05
2.23244e-05
2.23254e-05
2.23259e-05
2.23229e-05
2.23259e-05
2.64054e-05
2.63762e-05
2.23249e-05
2.23246e-05
2.23249e-05
2.6377e-05
2.64055e-05
2.63766e-05
2.23248e-05
2.23253e-05
2.23248e-05
2.23254e-05
2.64042e-05
2.63749e-05
2.23244e-05
2.23254e-05
2.23245e-05
2.23254e-05
2.23258e-05
2.2323e-05
2.23259e-05
2.64055e-05
2.63764e-05
2.23248e-05
2.23246e-05
2.23249e-05
2.63766e-05
2.6406e-05
2.63761e-05
2.23248e-05
2.23253e-05
2.23249e-05
2.23254e-05
2.64046e-05
2.63742e-05
2.23245e-05
2.23254e-05
2.23245e-05
2.23255e-05
2.23259e-05
2.2323e-05
2.23259e-05
2.64059e-05
2.63757e-05
2.23249e-05
2.23247e-05
2.23249e-05
2.63771e-05
2.64058e-05
2.63753e-05
2.23248e-05
2.23254e-05
2.23249e-05
2.23254e-05
2.6404e-05
2.63739e-05
2.23245e-05
2.23254e-05
2.23245e-05
2.23254e-05
2.23259e-05
2.23229e-05
2.23259e-05
2.64053e-05
2.63755e-05
2.23249e-05
2.23247e-05
2.23249e-05
2.63769e-05
2.64048e-05
2.63758e-05
2.23249e-05
2.23254e-05
2.23249e-05
2.23253e-05
2.64032e-05
2.6375e-05
2.23245e-05
2.23254e-05
2.23244e-05
2.23254e-05
2.23259e-05
2.23229e-05
2.23259e-05
2.64047e-05
2.63763e-05
2.23249e-05
2.23246e-05
2.23249e-05
2.63756e-05
2.64046e-05
2.63772e-05
2.23249e-05
2.23253e-05
2.23249e-05
2.23254e-05
2.64037e-05
2.63758e-05
2.23244e-05
2.23254e-05
2.23244e-05
2.23254e-05
2.23259e-05
2.2323e-05
2.23259e-05
2.64052e-05
2.63768e-05
2.23249e-05
2.23245e-05
2.23248e-05
2.63751e-05
2.64058e-05
2.63774e-05
2.23249e-05
2.23254e-05
2.2325e-05
2.23254e-05
2.64049e-05
2.63755e-05
2.23244e-05
2.23254e-05
2.23244e-05
2.23254e-05
2.23259e-05
2.2323e-05
2.23259e-05
2.64059e-05
2.63765e-05
2.23249e-05
2.23246e-05
2.23249e-05
2.63761e-05
2.64067e-05
2.63768e-05
2.2325e-05
2.23254e-05
2.23251e-05
2.23254e-05
2.64051e-05
2.63747e-05
2.23243e-05
2.23254e-05
2.23244e-05
2.23254e-05
2.23259e-05
2.2323e-05
2.23259e-05
2.64059e-05
2.63761e-05
2.23249e-05
2.23246e-05
2.23249e-05
2.63772e-05
2.64066e-05
2.63762e-05
2.23251e-05
2.23254e-05
2.23251e-05
2.23254e-05
2.64045e-05
2.63746e-05
2.23244e-05
2.23254e-05
2.23244e-05
2.23254e-05
2.23259e-05
2.2323e-05
2.23259e-05
2.64056e-05
2.63761e-05
2.23249e-05
2.23245e-05
2.23249e-05
2.63783e-05
2.6406e-05
2.63762e-05
2.23251e-05
2.23254e-05
2.23252e-05
2.23254e-05
2.64042e-05
2.63748e-05
2.23244e-05
2.23254e-05
2.23243e-05
2.23254e-05
2.23259e-05
2.2323e-05
2.23259e-05
2.64054e-05
2.63765e-05
2.23248e-05
2.23245e-05
2.23249e-05
2.63792e-05
2.64057e-05
2.63765e-05
2.23252e-05
2.23254e-05
2.23252e-05
2.23254e-05
2.64042e-05
2.63751e-05
2.23244e-05
2.23254e-05
2.23243e-05
2.23254e-05
2.23259e-05
2.2323e-05
2.23259e-05
2.64057e-05
2.63768e-05
2.23248e-05
2.23246e-05
2.23249e-05
2.63795e-05
2.6406e-05
2.63767e-05
2.23253e-05
2.23254e-05
2.23253e-05
2.23254e-05
2.64044e-05
2.63754e-05
2.23243e-05
2.23254e-05
2.23243e-05
2.23254e-05
2.23259e-05
2.2323e-05
2.23259e-05
2.64061e-05
2.63766e-05
2.23248e-05
2.23245e-05
2.23249e-05
2.63794e-05
2.64063e-05
2.63766e-05
2.23253e-05
2.23254e-05
2.23253e-05
2.23254e-05
2.64048e-05
2.63756e-05
2.23243e-05
2.23254e-05
2.23243e-05
2.23254e-05
2.23259e-05
2.2323e-05
2.23259e-05
2.64062e-05
2.63764e-05
2.23248e-05
2.23245e-05
2.23249e-05
2.63791e-05
2.64064e-05
2.63763e-05
2.23253e-05
2.23254e-05
2.23254e-05
2.23254e-05
2.64051e-05
2.63755e-05
2.23243e-05
2.23254e-05
2.23243e-05
2.23254e-05
2.23259e-05
2.23231e-05
2.23259e-05
2.6406e-05
2.63764e-05
2.23248e-05
2.23245e-05
2.23248e-05
2.63789e-05
2.64062e-05
2.63765e-05
2.23254e-05
2.23254e-05
2.23254e-05
2.23254e-05
2.64052e-05
2.63753e-05
2.23243e-05
2.23254e-05
2.23243e-05
2.23254e-05
2.23259e-05
2.23231e-05
2.23259e-05
2.6406e-05
2.63764e-05
2.23248e-05
2.23245e-05
2.23247e-05
2.63787e-05
2.64062e-05
2.63766e-05
2.23254e-05
2.23254e-05
2.23255e-05
2.23255e-05
2.64052e-05
2.63751e-05
2.23243e-05
2.23254e-05
2.23243e-05
2.23254e-05
2.23258e-05
2.23231e-05
2.23259e-05
2.64061e-05
2.63764e-05
2.23247e-05
2.23245e-05
2.23247e-05
2.63785e-05
2.64065e-05
2.63763e-05
2.23255e-05
2.23255e-05
2.23255e-05
2.23254e-05
2.64051e-05
2.63747e-05
2.23243e-05
2.23254e-05
2.23243e-05
2.23254e-05
2.23259e-05
2.23231e-05
2.23259e-05
2.64062e-05
2.63763e-05
2.23247e-05
2.23245e-05
2.23247e-05
2.63784e-05
2.64063e-05
2.63763e-05
2.23255e-05
2.23254e-05
2.23255e-05
2.23254e-05
2.64048e-05
2.63747e-05
2.23243e-05
2.23254e-05
2.23243e-05
2.23254e-05
2.23258e-05
2.23231e-05
2.23258e-05
2.64061e-05
2.63762e-05
2.23247e-05
2.23246e-05
2.23247e-05
2.63783e-05
2.64061e-05
2.63765e-05
2.23255e-05
2.23254e-05
2.23255e-05
2.23255e-05
2.64046e-05
2.63749e-05
2.23243e-05
2.23254e-05
2.23243e-05
2.23254e-05
2.23258e-05
2.23231e-05
2.23259e-05
2.6406e-05
2.63763e-05
2.23247e-05
2.23245e-05
2.23247e-05
2.63782e-05
2.64062e-05
2.63766e-05
2.23255e-05
2.23255e-05
2.23255e-05
2.23255e-05
2.64047e-05
2.63751e-05
2.23243e-05
2.23254e-05
2.23243e-05
2.23254e-05
2.23258e-05
2.23231e-05
2.23259e-05
2.6406e-05
2.63764e-05
2.23247e-05
2.23245e-05
2.23247e-05
2.63783e-05
2.64064e-05
2.63767e-05
2.23255e-05
2.23255e-05
2.23255e-05
2.23255e-05
2.64049e-05
2.6375e-05
2.23243e-05
2.23254e-05
2.23242e-05
2.23254e-05
2.23259e-05
2.23231e-05
2.23259e-05
2.64062e-05
2.63762e-05
2.23247e-05
2.23245e-05
2.23247e-05
2.63784e-05
2.64065e-05
2.63768e-05
2.23255e-05
2.23255e-05
2.23255e-05
2.23254e-05
2.64049e-05
2.63749e-05
2.23242e-05
2.23254e-05
2.23242e-05
2.23254e-05
2.23259e-05
2.23231e-05
2.23259e-05
2.64061e-05
2.6376e-05
2.23247e-05
2.23245e-05
2.23247e-05
2.63782e-05
2.64066e-05
2.63767e-05
2.23255e-05
2.23254e-05
2.23255e-05
2.23254e-05
2.64048e-05
2.6375e-05
2.23242e-05
2.23254e-05
2.23242e-05
2.23254e-05
2.23259e-05
2.23231e-05
2.23259e-05
2.64059e-05
2.63761e-05
2.23246e-05
2.23245e-05
2.23246e-05
2.63781e-05
2.64067e-05
2.63765e-05
2.23255e-05
2.23254e-05
2.23255e-05
2.23254e-05
2.64048e-05
2.6375e-05
2.23242e-05
2.23254e-05
2.23242e-05
2.23254e-05
2.23259e-05
2.23231e-05
2.23259e-05
2.64059e-05
2.63762e-05
2.23246e-05
2.23245e-05
2.23247e-05
2.63784e-05
2.64066e-05
2.63763e-05
2.23255e-05
2.23254e-05
2.23255e-05
2.23254e-05
2.64048e-05
2.63749e-05
2.23242e-05
2.23254e-05
2.23242e-05
2.23254e-05
2.23259e-05
2.23231e-05
2.23259e-05
2.64059e-05
2.63762e-05
2.23246e-05
2.23245e-05
2.23246e-05
2.63787e-05
2.64064e-05
2.63762e-05
2.23255e-05
2.23254e-05
2.23254e-05
2.23254e-05
2.64047e-05
2.63751e-05
2.23242e-05
2.23254e-05
2.23241e-05
2.23254e-05
2.23259e-05
2.23231e-05
2.23258e-05
2.64059e-05
2.63763e-05
2.23246e-05
2.23245e-05
2.23246e-05
2.63787e-05
2.64061e-05
2.63763e-05
2.23255e-05
2.23254e-05
2.23254e-05
2.23254e-05
2.64048e-05
2.63752e-05
2.23241e-05
2.23254e-05
2.23241e-05
2.23254e-05
2.23258e-05
2.23231e-05
2.23258e-05
2.6406e-05
2.63764e-05
2.23246e-05
2.23245e-05
2.23246e-05
2.63785e-05
2.64061e-05
2.63765e-05
2.23254e-05
2.23254e-05
2.23255e-05
2.23254e-05
2.6405e-05
2.63751e-05
2.23241e-05
2.23254e-05
2.23241e-05
2.23254e-05
2.23258e-05
2.23231e-05
2.23258e-05
2.64061e-05
2.63762e-05
2.23246e-05
2.23245e-05
2.23246e-05
2.63782e-05
2.64062e-05
2.63766e-05
2.23255e-05
2.23254e-05
2.23255e-05
2.23254e-05
2.64051e-05
2.63749e-05
2.23241e-05
2.23254e-05
2.23241e-05
2.23253e-05
2.23258e-05
2.23231e-05
2.23258e-05
2.6406e-05
2.63762e-05
2.23246e-05
2.23245e-05
2.23246e-05
2.63783e-05
2.64064e-05
2.63767e-05
2.23255e-05
2.23254e-05
2.23255e-05
2.23254e-05
2.64049e-05
2.63747e-05
2.23241e-05
2.23254e-05
2.23241e-05
2.23253e-05
2.23258e-05
2.2323e-05
2.23258e-05
2.64059e-05
2.63764e-05
2.23246e-05
2.23245e-05
2.23246e-05
2.63784e-05
2.64065e-05
2.63766e-05
2.23255e-05
2.23254e-05
2.23255e-05
2.23254e-05
2.64047e-05
2.63749e-05
2.23241e-05
2.23254e-05
2.23241e-05
2.23254e-05
2.23258e-05
2.2323e-05
2.23258e-05
2.64061e-05
2.63764e-05
2.23246e-05
2.23245e-05
2.23246e-05
2.63783e-05
2.64065e-05
2.63765e-05
2.23255e-05
2.23254e-05
2.23255e-05
2.23254e-05
2.64047e-05
2.6375e-05
2.23241e-05
2.23254e-05
2.23241e-05
2.23254e-05
2.23258e-05
2.2323e-05
2.23258e-05
2.64062e-05
2.63761e-05
2.23246e-05
2.23244e-05
2.23246e-05
2.63782e-05
2.64065e-05
2.63763e-05
2.23255e-05
2.23254e-05
2.23255e-05
2.23254e-05
2.64049e-05
2.63749e-05
2.23242e-05
2.23254e-05
2.23241e-05
2.23253e-05
2.23258e-05
2.2323e-05
2.23258e-05
2.64061e-05
2.6376e-05
2.23246e-05
2.23244e-05
2.23246e-05
2.63783e-05
2.64063e-05
2.63763e-05
2.23255e-05
2.23254e-05
2.23255e-05
2.23254e-05
2.64048e-05
2.63749e-05
2.23242e-05
2.23254e-05
2.23241e-05
2.23253e-05
2.23258e-05
2.2323e-05
2.23258e-05
2.64058e-05
2.63762e-05
2.23246e-05
2.23244e-05
2.23246e-05
2.63786e-05
2.64062e-05
2.63764e-05
2.23255e-05
2.23254e-05
2.23255e-05
2.23253e-05
2.64048e-05
2.63749e-05
2.23242e-05
2.23254e-05
2.23241e-05
2.23253e-05
2.23258e-05
2.2323e-05
2.23258e-05
2.64058e-05
2.63764e-05
2.23246e-05
2.23244e-05
2.23246e-05
2.63787e-05
2.64062e-05
2.63766e-05
2.23255e-05
2.23254e-05
2.23254e-05
2.23253e-05
2.64048e-05
2.63749e-05
2.23241e-05
2.23254e-05
2.23241e-05
2.23253e-05
2.23258e-05
2.23229e-05
2.23258e-05
2.6406e-05
2.63763e-05
2.23246e-05
2.23243e-05
2.23245e-05
2.63785e-05
2.64063e-05
2.63766e-05
2.23255e-05
2.23254e-05
2.23254e-05
2.23253e-05
2.64048e-05
2.6375e-05
2.23241e-05
2.23254e-05
2.2324e-05
2.23253e-05
2.23258e-05
2.23229e-05
2.23258e-05
2.64061e-05
2.63762e-05
2.23246e-05
2.23243e-05
2.23245e-05
2.63783e-05
2.64065e-05
2.63766e-05
2.23255e-05
2.23254e-05
2.23254e-05
2.23253e-05
2.64049e-05
2.6375e-05
2.23241e-05
2.23253e-05
2.2324e-05
2.23253e-05
2.23258e-05
2.23229e-05
2.23257e-05
2.6406e-05
2.63762e-05
2.23246e-05
2.23243e-05
2.23245e-05
2.63783e-05
2.64065e-05
2.63765e-05
2.23255e-05
2.23254e-05
2.23254e-05
2.23253e-05
2.6405e-05
2.63749e-05
2.23241e-05
2.23254e-05
2.2324e-05
2.23252e-05
2.23258e-05
2.23229e-05
2.23257e-05
2.6406e-05
2.63762e-05
2.23246e-05
2.23243e-05
2.23245e-05
2.63783e-05
2.64065e-05
2.63765e-05
2.23255e-05
2.23254e-05
2.23253e-05
2.23253e-05
2.64049e-05
2.63748e-05
2.23242e-05
2.23254e-05
2.2324e-05
2.23252e-05
2.23258e-05
2.23229e-05
2.23257e-05
2.6406e-05
2.63762e-05
2.23246e-05
2.23243e-05
2.23245e-05
2.63781e-05
2.64065e-05
2.63765e-05
2.23255e-05
2.23255e-05
2.23254e-05
2.23253e-05
2.64048e-05
2.63748e-05
2.23242e-05
2.23254e-05
2.2324e-05
2.23252e-05
2.23259e-05
2.23229e-05
2.23257e-05
2.6406e-05
2.63762e-05
2.23246e-05
2.23242e-05
2.23244e-05
2.63781e-05
2.64065e-05
2.63764e-05
2.23256e-05
2.23255e-05
2.23254e-05
2.23253e-05
2.64047e-05
2.63749e-05
2.23242e-05
2.23255e-05
2.2324e-05
2.23252e-05
2.23259e-05
2.23229e-05
2.23257e-05
2.6406e-05
2.63762e-05
2.23247e-05
2.23242e-05
2.23245e-05
2.63785e-05
2.64065e-05
2.63763e-05
2.23257e-05
2.23256e-05
2.23253e-05
2.23252e-05
2.64048e-05
2.6375e-05
2.23243e-05
2.23255e-05
2.2324e-05
2.23252e-05
2.2326e-05
2.23229e-05
2.23257e-05
2.64061e-05
2.63762e-05
2.23247e-05
2.23242e-05
2.23244e-05
2.63786e-05
2.64064e-05
2.63763e-05
2.23257e-05
2.23257e-05
2.23253e-05
2.23252e-05
2.64049e-05
2.6375e-05
2.23244e-05
2.23256e-05
2.23239e-05
2.23252e-05
2.23261e-05
2.23229e-05
2.23257e-05
2.6406e-05
2.63761e-05
2.23248e-05
2.23242e-05
2.23244e-05
2.63786e-05
2.64063e-05
2.63764e-05
2.23258e-05
2.23257e-05
2.23253e-05
2.23252e-05
2.64049e-05
2.63751e-05
2.23245e-05
2.23257e-05
2.23239e-05
2.23251e-05
2.23262e-05
2.23228e-05
2.23256e-05
2.6406e-05
2.63762e-05
2.23249e-05
2.23241e-05
2.23243e-05
2.63787e-05
2.64063e-05
2.63766e-05
2.23259e-05
2.23259e-05
2.23252e-05
2.23252e-05
2.64051e-05
2.63752e-05
2.23246e-05
2.23258e-05
2.23239e-05
2.23251e-05
2.23263e-05
2.23228e-05
2.23256e-05
2.6406e-05
2.63763e-05
2.2325e-05
2.23241e-05
2.23243e-05
2.63786e-05
2.64065e-05
2.63766e-05
2.23261e-05
2.2326e-05
2.23252e-05
2.23251e-05
2.64053e-05
2.6375e-05
2.23248e-05
2.2326e-05
2.23239e-05
2.2325e-05
2.23265e-05
2.23227e-05
2.23255e-05
2.6406e-05
2.63764e-05
2.23252e-05
2.2324e-05
2.23242e-05
2.63783e-05
2.64066e-05
2.63765e-05
2.23264e-05
2.23263e-05
2.23251e-05
2.23251e-05
2.64051e-05
2.63748e-05
2.2325e-05
2.23262e-05
2.23238e-05
2.2325e-05
2.23267e-05
2.23226e-05
2.23255e-05
2.6406e-05
2.63765e-05
2.23254e-05
2.23239e-05
2.23242e-05
2.63785e-05
2.64065e-05
2.63766e-05
2.23267e-05
2.23266e-05
2.23251e-05
2.2325e-05
2.64049e-05
2.6375e-05
2.23254e-05
2.23265e-05
2.23238e-05
2.2325e-05
2.2327e-05
2.23226e-05
2.23255e-05
2.64062e-05
2.63764e-05
2.23257e-05
2.23239e-05
2.23242e-05
2.63788e-05
2.64065e-05
2.63767e-05
2.23271e-05
2.23271e-05
2.23253e-05
2.23252e-05
2.64049e-05
2.63751e-05
2.23258e-05
2.2327e-05
2.2324e-05
2.23251e-05
2.23275e-05
2.23228e-05
2.23256e-05
2.64062e-05
2.63764e-05
2.23262e-05
2.23241e-05
2.23243e-05
2.63787e-05
2.64065e-05
2.6377e-05
2.23279e-05
2.23278e-05
2.23257e-05
2.23256e-05
2.64049e-05
2.63755e-05
2.23266e-05
2.23278e-05
2.23244e-05
2.23256e-05
2.23283e-05
2.23232e-05
2.2326e-05
2.64061e-05
2.63769e-05
2.23269e-05
2.23245e-05
2.23246e-05
2.63788e-05
2.64063e-05
2.63752e-05
2.23291e-05
2.23289e-05
2.23209e-05
2.23208e-05
2.64048e-05
2.63737e-05
2.23278e-05
2.23289e-05
2.23196e-05
2.23207e-05
2.23293e-05
2.23184e-05
2.23212e-05
2.6406e-05
2.63749e-05
2.2328e-05
2.23196e-05
2.23197e-05
2.63758e-05
2.64019e-05
2.60948e-05
2.23253e-05
2.23251e-05
2.20179e-05
2.20178e-05
2.64005e-05
2.60938e-05
2.23239e-05
2.23251e-05
2.20176e-05
2.20167e-05
2.23255e-05
2.20172e-05
2.20178e-05
2.64016e-05
2.60942e-05
2.2324e-05
2.20173e-05
2.20174e-05
2.60946e-05
2.57599e-05
2.16368e-05
2.16366e-05
2.57591e-05
2.16368e-05
2.16356e-05
1.5897e-05
1.58966e-05
1.58968e-05
2.16367e-05
2.57593e-05
2.16366e-05
1.04809e-05
2.31684e-06
7.40983e-06
7.41382e-06
7.85181e-08
5.425e-07
6.07501e-07
4.80481e-06
7.91044e-08
5.43424e-07
4.7713e-06
5.02631e-07
3.58638e-07
3.12077e-07
2.78164e-07
2.72749e-07
5.00558e-06
2.10426e-07
6.46092e-06
1.38381e-05
2.13997e-05
2.73724e-07
5.13817e-06
2.21114e-07
6.5843e-06
4.64066e-06
4.61598e-06
4.61624e-06
4.65665e-06
4.66104e-06
4.63519e-06
4.63639e-06
7.76437e-08
8.65328e-07
2.30097e-06
7.27622e-07
7.80057e-08
8.38786e-07
2.27691e-06
1.43217e-05
2.19714e-05
8.01163e-08
2.2913e-06
7.47075e-07
6.72887e-07
7.98387e-08
2.29507e-06
7.20095e-07
1.72423e-06
1.89806e-06
3.44168e-07
1.71352e-06
1.87568e-06
4.80793e-07
9.76084e-06
3.65137e-07
1.21942e-05
3.65649e-05
4.64672e-05
4.88247e-07
1.00063e-05
3.89216e-07
1.25825e-05
4.70086e-06
4.67411e-06