/*--------------------------------*- C++ -*----------------------------------*\
| =========                 |                                                 |
| \\      /  F ield         | OpenFOAM: The Open Source CFD Toolbox           |
|  \\    /   O peration     | Version:  v1906                                 |
|   \\  /    A nd           | Web:      www.OpenFOAM.com                      |
|    \\/     M anipulation  |                                                 |
\*---------------------------------------------------------------------------*/
FoamFile
{
    version     2.0;
    format      ascii;
    class       volScalarField;
    location    "112.5";
    object      nut;
}
// * * * * * * * * * * * * * * * * * * * * * * * * * * * * * * * * * * * * * //

dimensions      [0 2 -1 0 0 0 0];


internalField   nonuniform List<scalar> 
171728
(
4.25934e-05
4.85322e-06
5.16364e-06
1.92108e-06
4.32958e-05
5.28336e-06
5.74174e-06
2.02919e-06
4.48579e-05
5.88176e-06
6.57551e-06
2.25102e-06
4.63266e-05
6.52998e-06
7.4488e-06
2.52939e-06
4.77397e-05
7.29411e-06
8.35689e-06
2.8406e-06
4.91154e-05
8.23886e-06
9.1401e-06
3.13398e-06
5.04722e-05
9.39026e-06
1.01408e-05
3.38424e-06
5.18029e-05
1.08596e-05
1.13284e-05
3.72131e-06
5.31122e-05
1.26527e-05
1.26403e-05
4.2275e-06
5.44029e-05
1.51674e-05
1.41162e-05
4.86408e-06
5.5665e-05
1.64458e-05
1.56978e-05
5.57861e-06
5.68815e-05
1.80534e-05
1.74092e-05
6.44835e-06
5.81957e-05
1.9765e-05
1.933e-05
7.52882e-06
5.96843e-05
2.17911e-05
2.15332e-05
8.82634e-06
6.12679e-05
2.41681e-05
2.41451e-05
1.0654e-05
6.27528e-05
2.69998e-05
2.6844e-05
1.3013e-05
6.42453e-05
2.98419e-05
2.97625e-05
1.56149e-05
6.58668e-05
3.27964e-05
3.29232e-05
1.81998e-05
6.77902e-05
3.60251e-05
3.61855e-05
2.12264e-05
7.02323e-05
3.97886e-05
3.98924e-05
2.52174e-05
7.31505e-05
4.39509e-05
4.4031e-05
3.01577e-05
7.68579e-05
4.89534e-05
4.90844e-05
3.64433e-05
8.06351e-05
5.43699e-05
5.44065e-05
4.54775e-05
8.5558e-05
6.19594e-05
6.20144e-05
5.72216e-05
9.1705e-05
7.25166e-05
7.25647e-05
7.08832e-05
9.8381e-05
8.42027e-05
8.42194e-05
8.29541e-05
0.000106068
9.54016e-05
9.54052e-05
9.27893e-05
0.000112835
0.000103253
0.000103252
9.91251e-05
0.000116531
0.000106647
0.000106646
0.000101265
0.000117854
0.000107672
0.000107671
0.000101887
0.000118197
0.000107913
0.000107911
0.000102025
0.000118266
0.000107958
0.000107957
0.000102081
0.000118276
0.000107963
0.000107962
0.00010206
0.000118279
0.000107966
0.000107965
0.000102071
0.000118279
0.000107965
0.000107964
0.000102067
0.00011828
0.000107966
0.000107965
0.00010207
0.000118282
0.000107967
0.000107965
0.000102069
0.000118283
0.000107968
0.000107967
0.00010207
0.000118283
0.000107968
0.000107967
0.00010207
0.000118284
0.000107969
0.000107967
0.00010207
0.000118284
0.000107969
0.000107967
0.00010207
0.000118284
0.000107969
0.000107967
0.00010207
0.000118285
0.00010797
0.000107967
0.00010207
0.000118285
0.000107969
0.000107967
0.000102069
0.000118286
0.00010797
0.000107967
0.000102071
0.000118286
0.00010797
0.000107967
0.000102073
0.000118286
0.00010797
0.000107967
0.000102072
0.000118286
0.00010797
0.000107967
0.000102069
0.000118285
0.00010797
0.000107966
0.000102068
0.000118286
0.00010797
0.000107966
0.000102069
0.000118286
0.000107971
0.000107967
0.000102069
0.000118286
0.000107971
0.000107967
0.000102068
0.000118286
0.000107971
0.000107967
0.000102067
0.000118286
0.000107971
0.000107967
0.000102066
0.000118286
0.000107971
0.000107966
0.000102065
0.000118286
0.000107971
0.000107967
0.000102063
0.000118287
0.000107971
0.000107967
0.000102061
0.000118287
0.000107971
0.000107967
0.000102061
0.000118286
0.000107971
0.000107967
0.000102061
0.000118286
0.000107971
0.000107967
0.000102061
0.000118286
0.000107971
0.000107967
0.00010206
0.000118287
0.000107971
0.000107967
0.00010206
0.000118286
0.000107971
0.000107967
0.000102061
0.000118286
0.000107971
0.000107967
0.000102061
0.000118286
0.000107971
0.000107967
0.00010206
0.000118286
0.000107971
0.000107966
0.000102059
0.000118286
0.000107971
0.000107966
0.00010206
0.000118286
0.000107971
0.000107967
0.00010206
0.000118286
0.000107971
0.000107967
0.000102061
0.000118286
0.000107971
0.000107967
0.00010206
0.000118286
0.000107971
0.000107966
0.00010206
0.000118286
0.000107971
0.000107966
0.000102061
0.000118286
0.000107971
0.000107966
0.000102061
0.000118286
0.000107971
0.000107966
0.00010206
0.000118286
0.000107971
0.000107966
0.000102059
0.000118286
0.000107971
0.000107966
0.000102059
0.000118286
0.000107971
0.000107966
0.00010206
0.000118286
0.000107971
0.000107966
0.00010206
0.000118286
0.000107971
0.000107966
0.00010206
0.000118286
0.000107971
0.000107966
0.00010206
0.000118286
0.000107971
0.000107966
0.000102061
0.000118286
0.000107972
0.000107967
0.000102061
0.000118286
0.000107972
0.000107967
0.00010206
0.000118286
0.000107972
0.000107967
0.00010206
0.000118286
0.000107973
0.000107967
0.00010206
0.000118287
0.000107973
0.000107968
0.00010206
0.000118287
0.000107974
0.000107969
0.000102061
0.000118287
0.000107975
0.00010797
0.000102063
0.000118288
0.000107977
0.000107972
0.000102063
0.000118288
0.00010798
0.000107975
0.000102063
0.000118289
0.000107985
0.00010798
0.000102066
0.00011829
0.000107995
0.00010799
0.000102069
0.000118292
0.000108012
0.000108007
0.000102072
0.000118284
0.000108
0.000107995
0.00010208
0.000119113
0.000108146
0.000108142
0.000102508
2.22341e-06
3.33927e-06
3.04588e-06
2.24658e-06
3.19168e-06
4.06217e-06
4.3323e-05
4.3315e-05
4.35348e-05
4.34057e-05
3.57195e-06
2.87759e-06
2.62661e-06
3.89233e-06
3.71206e-06
1.92792e-06
2.22418e-06
2.31288e-06
4.72175e-06
4.36412e-06
5.04155e-06
4.70972e-06
2.2407e-06
2.33958e-06
4.49107e-06
5.3151e-06
4.85661e-06
5.7082e-06
4.22486e-06
5.13874e-06
4.59587e-06
2.64553e-06
2.86778e-06
5.11489e-06
5.52879e-06
5.50175e-06
2.01818e-06
2.32572e-06
2.46527e-06
5.22256e-06
4.89661e-06
5.78217e-06
5.48556e-06
2.34773e-06
2.43966e-06
5.04105e-06
5.90461e-06
5.6233e-06
6.49111e-06
4.78963e-06
5.73026e-06
5.4147e-06
2.89441e-06
3.15038e-06
5.70282e-06
6.35579e-06
6.33163e-06
2.23756e-06
2.47587e-06
2.63813e-06
5.98942e-06
5.70714e-06
6.65071e-06
6.39325e-06
2.43567e-06
2.51453e-06
5.83222e-06
6.68702e-06
6.46148e-06
7.26948e-06
5.64816e-06
6.35765e-06
6.39497e-06
3.17693e-06
3.3266e-06
6.55115e-06
7.28301e-06
7.19638e-06
2.521e-06
2.64107e-06
2.85892e-06
6.86655e-06
6.63767e-06
7.57327e-06
7.39779e-06
2.50127e-06
2.61518e-06
6.66766e-06
7.4805e-06
7.30134e-06
8.10612e-06
6.66239e-06
7.09034e-06
7.48411e-06
3.32127e-06
3.37156e-06
7.42484e-06
8.09882e-06
8.05664e-06
2.84042e-06
2.85203e-06
3.06283e-06
7.79917e-06
7.67035e-06
8.53282e-06
8.5431e-06
2.60138e-06
2.81063e-06
7.523e-06
8.3284e-06
8.19157e-06
9.05628e-06
7.77387e-06
8.00054e-06
8.66188e-06
3.35731e-06
3.48562e-06
8.26061e-06
8.95711e-06
8.87717e-06
3.14477e-06
3.04874e-06
3.3088e-06
8.79848e-06
8.81751e-06
9.60872e-06
9.67983e-06
2.7986e-06
3.15578e-06
8.41533e-06
9.31417e-06
9.13841e-06
1.01736e-05
8.94965e-06
9.07666e-06
9.85169e-06
3.46609e-06
3.54227e-06
9.0969e-06
9.87071e-06
9.84085e-06
3.4017e-06
3.29244e-06
3.61612e-06
9.89611e-06
9.97434e-06
1.08185e-05
1.08933e-05
3.14897e-06
3.65645e-06
9.36491e-06
1.04581e-05
1.01349e-05
1.14144e-05
1.01427e-05
1.04768e-05
1.10264e-05
3.50147e-06
3.671e-06
1.0099e-05
1.1018e-05
1.09337e-05
3.73741e-06
3.60047e-06
4.09959e-06
1.11527e-05
1.11956e-05
1.22391e-05
1.20676e-05
3.65303e-06
4.33819e-06
1.04155e-05
1.17507e-05
1.13104e-05
1.27786e-05
1.13507e-05
1.21512e-05
1.23148e-05
3.65659e-06
4.14982e-06
1.12396e-05
1.22843e-05
1.21969e-05
4.2403e-06
4.08991e-06
4.78588e-06
1.26193e-05
1.23875e-05
1.37591e-05
1.33734e-05
4.33742e-06
5.16801e-06
1.16769e-05
1.31619e-05
1.28468e-05
1.43091e-05
1.26605e-05
1.45357e-05
1.37041e-05
4.13281e-06
4.82876e-06
1.25306e-05
1.37493e-05
1.35983e-05
4.8793e-06
4.77983e-06
5.75168e-06
1.41668e-05
1.3726e-05
1.55056e-05
1.48437e-05
5.1597e-06
5.87025e-06
1.32204e-05
1.4673e-05
1.47287e-05
1.58035e-05
1.40629e-05
1.62382e-05
1.52236e-05
4.81442e-06
5.66085e-06
1.39717e-05
1.52938e-05
1.51294e-05
5.59663e-06
5.76762e-06
6.98143e-06
1.59415e-05
1.52316e-05
1.73127e-05
1.65503e-05
5.84105e-06
6.59785e-06
1.53583e-05
1.61781e-05
1.7062e-05
1.74418e-05
1.55916e-05
1.75891e-05
1.67576e-05
5.64552e-06
6.64171e-06
1.55207e-05
1.69659e-05
1.67536e-05
6.46355e-06
6.97739e-06
8.01315e-06
1.77984e-05
1.7049e-05
1.92479e-05
1.86606e-05
6.58489e-06
7.7668e-06
1.748e-05
1.79122e-05
1.87425e-05
1.9237e-05
1.71948e-05
1.93099e-05
1.8572e-05
6.6329e-06
7.81572e-06
1.72012e-05
1.88141e-05
1.8628e-05
7.53442e-06
8.00148e-06
9.49214e-06
1.97819e-05
1.9266e-05
2.15767e-05
2.12401e-05
7.77843e-06
9.39432e-06
1.924e-05
1.96933e-05
2.08753e-05
2.1129e-05
1.90682e-05
2.12552e-05
2.06655e-05
7.81653e-06
9.28496e-06
1.9142e-05
2.09902e-05
2.07745e-05
8.88657e-06
9.41172e-06
1.14598e-05
2.2163e-05
2.18827e-05
2.4076e-05
2.38833e-05
9.34782e-06
1.13522e-05
2.14085e-05
2.1571e-05
2.32741e-05
2.3266e-05
2.11994e-05
2.35678e-05
2.31054e-05
9.20036e-06
1.11518e-05
2.13097e-05
2.3481e-05
2.32092e-05
1.07984e-05
1.13083e-05
1.3719e-05
2.47398e-05
2.44769e-05
2.66507e-05
2.60469e-05
1.1201e-05
1.34644e-05
2.39229e-05
2.39051e-05
2.58318e-05
2.58856e-05
2.37882e-05
2.61682e-05
2.57943e-05
1.09917e-05
1.34549e-05
2.38872e-05
2.60907e-05
2.59664e-05
1.32142e-05
1.35162e-05
1.62899e-05
2.73604e-05
2.6711e-05
2.94624e-05
2.89911e-05
1.32633e-05
1.6122e-05
2.66012e-05
2.66758e-05
2.88147e-05
2.89691e-05
2.65675e-05
2.92335e-05
2.88292e-05
1.32447e-05
1.61201e-05
2.67362e-05
2.90436e-05
2.89696e-05
1.59011e-05
1.59952e-05
1.87524e-05
3.01149e-05
2.97422e-05
3.21589e-05
3.1931e-05
1.58213e-05
1.86667e-05
2.95254e-05
2.96969e-05
3.1797e-05
3.19588e-05
2.9507e-05
3.19697e-05
3.18057e-05
1.58187e-05
1.86621e-05
2.96709e-05
3.20991e-05
3.19009e-05
1.83655e-05
1.85374e-05
2.1374e-05
3.2927e-05
3.27042e-05
3.52743e-05
3.51384e-05
1.84065e-05
2.13769e-05
3.25956e-05
3.27508e-05
3.50449e-05
3.51642e-05
3.26528e-05
3.52313e-05
3.48429e-05
1.84195e-05
2.13946e-05
3.27422e-05
3.53941e-05
3.5056e-05
2.0961e-05
2.16672e-05
2.48252e-05
3.60795e-05
3.59694e-05
3.87446e-05
3.86736e-05
2.16546e-05
2.46648e-05
3.58795e-05
3.59838e-05
3.86676e-05
3.87509e-05
3.55764e-05
3.87573e-05
3.85414e-05
2.16907e-05
2.47909e-05
3.57853e-05
3.88757e-05
3.85303e-05
2.45947e-05
2.53454e-05
2.93767e-05
3.97096e-05
3.96569e-05
4.27448e-05
4.26606e-05
2.51706e-05
2.92031e-05
3.96904e-05
3.97724e-05
4.27862e-05
4.2781e-05
3.97285e-05
4.28939e-05
4.30125e-05
2.53125e-05
2.93239e-05
3.96676e-05
4.29616e-05
4.2996e-05
2.94287e-05
3.01388e-05
3.5386e-05
4.38815e-05
4.37371e-05
4.77556e-05
4.75016e-05
2.99613e-05
3.5221e-05
4.38695e-05
4.38265e-05
4.75856e-05
4.75181e-05
4.40667e-05
4.75918e-05
4.76759e-05
3.007e-05
3.53084e-05
4.40863e-05
4.77293e-05
4.77366e-05
3.53242e-05
3.64945e-05
4.38521e-05
4.91435e-05
4.88985e-05
5.31273e-05
5.29429e-05
3.63465e-05
4.37941e-05
4.89578e-05
4.89059e-05
5.29618e-05
5.29533e-05
4.90285e-05
5.29808e-05
5.29958e-05
3.64344e-05
4.38506e-05
4.90884e-05
5.30329e-05
5.30529e-05
4.3849e-05
4.54845e-05
5.51475e-05
5.45021e-05
5.43291e-05
5.98001e-05
5.96626e-05
4.54346e-05
5.50994e-05
5.43453e-05
5.43476e-05
5.96779e-05
5.97085e-05
5.43695e-05
5.97093e-05
5.96803e-05
4.54834e-05
5.51539e-05
5.44269e-05
5.97567e-05
5.97256e-05
5.51084e-05
5.72605e-05
6.86787e-05
6.20383e-05
6.19186e-05
6.97587e-05
6.96995e-05
5.72151e-05
6.86613e-05
6.19346e-05
6.19692e-05
6.97167e-05
6.97453e-05
6.19331e-05
6.97279e-05
6.9706e-05
5.72759e-05
6.8713e-05
6.19713e-05
6.97827e-05
6.97277e-05
6.86615e-05
7.08982e-05
8.10801e-05
7.25381e-05
7.2495e-05
8.12275e-05
8.1209e-05
7.08849e-05
8.10777e-05
7.25117e-05
7.25347e-05
8.12228e-05
8.12284e-05
7.24999e-05
8.12281e-05
8.12149e-05
7.09297e-05
8.10939e-05
7.25177e-05
8.12507e-05
8.12241e-05
8.10748e-05
8.29587e-05
9.13723e-05
8.42008e-05
8.41861e-05
9.2804e-05
9.27936e-05
8.29573e-05
9.13725e-05
8.41991e-05
8.42002e-05
9.28056e-05
9.27974e-05
8.4193e-05
9.28123e-05
9.28043e-05
8.29698e-05
9.13745e-05
8.42008e-05
9.28179e-05
9.28094e-05
9.13719e-05
9.279e-05
9.83181e-05
9.53933e-05
9.53836e-05
0.000101724
0.000101714
9.27902e-05
9.83182e-05
9.5396e-05
9.53853e-05
0.000101728
0.000101713
9.53949e-05
0.000101736
0.000101726
9.27911e-05
9.83133e-05
9.53999e-05
0.000101735
0.000101733
9.83155e-05
9.91282e-05
0.00010107
0.000103242
0.000103232
0.000106099
0.000106088
9.91282e-05
0.00010107
0.000103246
0.00010323
0.000106104
0.000106085
0.000103245
0.000106111
0.000106103
9.91232e-05
0.000101068
0.000103251
0.00010611
0.000106109
0.000101072
0.000101263
0.000101855
0.000106635
0.000106624
0.000107519
0.000107508
0.000101263
0.000101854
0.000106641
0.000106621
0.000107525
0.000107505
0.000106639
0.000107532
0.000107523
0.00010126
0.000101851
0.000106646
0.000107531
0.00010753
0.000101855
0.000101887
0.000102041
0.000107659
0.000107648
0.000107868
0.000107857
0.000101886
0.000102041
0.000107666
0.000107645
0.000107874
0.000107853
0.000107663
0.000107881
0.000107871
0.000101883
0.000102036
0.00010767
0.000107879
0.000107879
0.000102041
0.000102025
0.000102116
0.0001079
0.000107889
0.000107942
0.00010793
0.000102025
0.000102115
0.000107907
0.000107885
0.000107949
0.000107927
0.000107903
0.000107954
0.000107944
0.000102021
0.000102111
0.00010791
0.000107953
0.000107951
0.000102114
0.000102083
0.000102092
0.000107946
0.000107934
0.00010795
0.000107937
0.000102082
0.000102091
0.000107952
0.000107931
0.000107957
0.000107935
0.000107948
0.000107962
0.000107952
0.000102078
0.000102087
0.000107955
0.000107961
0.000107959
0.00010209
0.000102061
0.000102103
0.000107951
0.000107938
0.000107953
0.000107941
0.000102061
0.000102103
0.000107957
0.000107936
0.00010796
0.000107938
0.000107953
0.000107965
0.000107954
0.000102057
0.000102098
0.00010796
0.000107964
0.000107961
0.000102102
0.000102073
0.0001021
0.000107954
0.000107942
0.000107953
0.000107941
0.000102072
0.0001021
0.000107961
0.000107939
0.00010796
0.000107939
0.000107955
0.000107965
0.000107955
0.000102068
0.000102095
0.000107962
0.000107964
0.000107962
0.000102098
0.000102069
0.000102102
0.000107953
0.000107941
0.000107954
0.000107941
0.000102069
0.000102102
0.00010796
0.000107938
0.000107961
0.000107939
0.000107955
0.000107966
0.000107955
0.000102064
0.000102097
0.000107962
0.000107964
0.000107962
0.0001021
0.000102071
0.000102102
0.000107954
0.000107941
0.000107954
0.000107942
0.000102071
0.000102102
0.000107961
0.000107939
0.000107962
0.00010794
0.000107955
0.000107966
0.000107956
0.000102067
0.000102097
0.000107962
0.000107965
0.000107963
0.0001021
0.000102071
0.000102103
0.000107954
0.000107942
0.000107955
0.000107942
0.000102071
0.000102103
0.000107963
0.00010794
0.000107963
0.00010794
0.000107956
0.000107967
0.000107957
0.000102067
0.000102098
0.000107963
0.000107966
0.000107963
0.000102101
0.000102072
0.000102103
0.000107955
0.000107942
0.000107955
0.000107943
0.000102072
0.000102103
0.000107963
0.000107941
0.000107963
0.000107941
0.000107957
0.000107968
0.000107957
0.000102068
0.000102098
0.000107963
0.000107967
0.000107964
0.000102101
0.000102072
0.000102103
0.000107956
0.000107943
0.000107956
0.000107943
0.000102072
0.000102103
0.000107963
0.000107941
0.000107964
0.000107941
0.000107957
0.000107969
0.000107958
0.000102067
0.000102098
0.000107964
0.000107967
0.000107964
0.000102101
0.000102072
0.000102104
0.000107956
0.000107943
0.000107956
0.000107943
0.000102072
0.000102103
0.000107964
0.000107942
0.000107964
0.000107942
0.000107958
0.000107969
0.000107958
0.000102068
0.000102099
0.000107964
0.000107967
0.000107964
0.000102101
0.000102073
0.000102103
0.000107956
0.000107943
0.000107956
0.000107944
0.000102072
0.000102103
0.000107964
0.000107942
0.000107964
0.000107942
0.000107958
0.000107969
0.000107958
0.000102068
0.000102098
0.000107964
0.000107967
0.000107964
0.000102101
0.000102073
0.000102103
0.000107956
0.000107944
0.000107956
0.000107944
0.000102072
0.000102103
0.000107964
0.000107942
0.000107964
0.000107942
0.000107958
0.000107969
0.000107958
0.000102068
0.000102099
0.000107964
0.000107967
0.000107964
0.000102101
0.000102072
0.000102104
0.000107956
0.000107944
0.000107956
0.000107944
0.000102072
0.000102103
0.000107964
0.000107942
0.000107964
0.000107942
0.000107958
0.00010797
0.000107958
0.000102068
0.000102099
0.000107964
0.000107967
0.000107964
0.0001021
0.000102073
0.000102104
0.000107956
0.000107945
0.000107956
0.000107945
0.000102072
0.000102103
0.000107964
0.000107942
0.000107964
0.000107942
0.000107958
0.00010797
0.000107958
0.000102068
0.000102098
0.000107964
0.000107967
0.000107964
0.000102102
0.000102073
0.000102103
0.000107956
0.000107945
0.000107957
0.000107945
0.000102072
0.000102103
0.000107964
0.000107942
0.000107964
0.000107942
0.000107958
0.00010797
0.000107958
0.000102067
0.000102099
0.000107964
0.000107967
0.000107964
0.000102103
0.000102072
0.000102102
0.000107957
0.000107945
0.000107957
0.000107945
0.000102072
0.000102103
0.000107964
0.000107942
0.000107964
0.000107942
0.000107958
0.00010797
0.000107958
0.000102068
0.000102099
0.000107964
0.000107967
0.000107964
0.0001021
0.000102071
0.000102103
0.000107957
0.000107945
0.000107957
0.000107945
0.000102072
0.000102102
0.000107964
0.000107942
0.000107963
0.000107941
0.000107958
0.00010797
0.000107958
0.000102068
0.000102097
0.000107964
0.000107966
0.000107964
0.000102098
0.000102072
0.000102103
0.000107957
0.000107945
0.000107957
0.000107945
0.000102072
0.000102101
0.000107964
0.000107942
0.000107964
0.000107941
0.000107958
0.00010797
0.000107958
0.000102067
0.000102096
0.000107964
0.000107966
0.000107964
0.000102098
0.000102072
0.000102103
0.000107957
0.000107945
0.000107957
0.000107946
0.000102071
0.000102101
0.000107963
0.000107941
0.000107964
0.000107942
0.000107958
0.000107971
0.000107958
0.000102065
0.000102096
0.000107964
0.000107967
0.000107964
0.000102099
0.000102072
0.000102103
0.000107957
0.000107946
0.000107957
0.000107946
0.000102069
0.000102103
0.000107964
0.000107942
0.000107963
0.000107942
0.000107958
0.000107971
0.000107958
0.000102064
0.000102099
0.000107964
0.000107967
0.000107964
0.000102098
0.000102072
0.000102104
0.000107957
0.000107946
0.000107957
0.000107946
0.00010207
0.000102105
0.000107963
0.000107942
0.000107963
0.000107942
0.000107958
0.000107971
0.000107958
0.000102065
0.000102101
0.000107964
0.000107967
0.000107964
0.000102096
0.000102072
0.000102105
0.000107958
0.000107946
0.000107958
0.000107946
0.000102072
0.000102106
0.000107963
0.000107942
0.000107963
0.000107942
0.000107958
0.000107971
0.000107958
0.000102067
0.000102102
0.000107964
0.000107967
0.000107964
0.000102095
0.000102073
0.000102105
0.000107958
0.000107946
0.000107958
0.000107946
0.000102073
0.000102106
0.000107963
0.000107942
0.000107963
0.000107942
0.000107958
0.000107971
0.000107958
0.000102069
0.000102101
0.000107964
0.000107967
0.000107964
0.000102094
0.000102074
0.000102105
0.000107958
0.000107946
0.000107958
0.000107946
0.000102074
0.000102106
0.000107963
0.000107942
0.000107963
0.000107942
0.000107958
0.000107971
0.000107958
0.00010207
0.0001021
0.000107964
0.000107966
0.000107964
0.000102093
0.000102075
0.000102103
0.000107958
0.000107946
0.000107958
0.000107946
0.000102074
0.000102106
0.000107963
0.000107942
0.000107963
0.000107942
0.000107958
0.000107971
0.000107958
0.000102069
0.000102099
0.000107964
0.000107966
0.000107964
0.000102092
0.000102074
0.000102103
0.000107958
0.000107946
0.000107958
0.000107946
0.000102074
0.000102105
0.000107963
0.000107942
0.000107963
0.000107942
0.000107958
0.000107971
0.000107958
0.000102068
0.0001021
0.000107964
0.000107966
0.000107964
0.000102091
0.000102073
0.000102104
0.000107958
0.000107946
0.000107958
0.000107946
0.000102075
0.000102105
0.000107963
0.000107942
0.000107963
0.000107942
0.000107958
0.000107971
0.000107958
0.000102068
0.0001021
0.000107964
0.000107967
0.000107963
0.00010209
0.000102074
0.000102103
0.000107958
0.000107946
0.000107958
0.000107946
0.000102075
0.000102104
0.000107963
0.000107942
0.000107963
0.000107942
0.000107958
0.000107971
0.000107958
0.000102069
0.000102099
0.000107964
0.000107967
0.000107964
0.00010209
0.000102073
0.000102102
0.000107958
0.000107946
0.000107958
0.000107946
0.000102074
0.000102103
0.000107963
0.000107942
0.000107963
0.000107941
0.000107958
0.000107971
0.000107958
0.000102069
0.000102099
0.000107964
0.000107967
0.000107964
0.00010209
0.000102072
0.000102103
0.000107958
0.000107946
0.000107958
0.000107946
0.000102073
0.000102104
0.000107963
0.000107941
0.000107963
0.000107941
0.000107958
0.000107971
0.000107958
0.000102068
0.000102099
0.000107964
0.000107967
0.000107964
0.000102089
0.000102072
0.000102104
0.000107959
0.000107946
0.000107959
0.000107946
0.000102073
0.000102105
0.000107963
0.000107942
0.000107963
0.000107942
0.000107958
0.000107971
0.000107958
0.000102068
0.0001021
0.000107964
0.000107967
0.000107963
0.000102089
0.000102073
0.000102104
0.000107959
0.000107946
0.000107958
0.000107946
0.000102074
0.000102105
0.000107963
0.000107942
0.000107963
0.000107942
0.000107958
0.000107971
0.000107958
0.000102069
0.000102099
0.000107964
0.000107967
0.000107963
0.00010209
0.000102074
0.000102104
0.000107959
0.000107946
0.000107958
0.000107946
0.000102074
0.000102104
0.000107963
0.000107942
0.000107963
0.000107941
0.000107958
0.000107971
0.000107958
0.000102069
0.000102099
0.000107964
0.000107966
0.000107963
0.000102089
0.000102074
0.000102104
0.000107959
0.000107946
0.000107958
0.000107946
0.000102074
0.000102104
0.000107963
0.000107942
0.000107963
0.000107941
0.000107958
0.000107971
0.000107958
0.000102068
0.000102099
0.000107963
0.000107966
0.000107963
0.000102089
0.000102075
0.000102104
0.000107959
0.000107946
0.000107959
0.000107946
0.000102073
0.000102104
0.000107963
0.000107941
0.000107963
0.000107941
0.000107958
0.000107971
0.000107958
0.000102068
0.000102099
0.000107963
0.000107966
0.000107963
0.000102089
0.000102074
0.000102103
0.000107959
0.000107946
0.000107958
0.000107946
0.000102073
0.000102104
0.000107963
0.000107942
0.000107963
0.000107941
0.000107958
0.000107971
0.000107958
0.000102068
0.000102098
0.000107963
0.000107966
0.000107963
0.00010209
0.000102074
0.000102102
0.000107958
0.000107946
0.000107958
0.000107946
0.000102073
0.000102104
0.000107963
0.000107942
0.000107962
0.000107941
0.000107958
0.000107971
0.000107958
0.000102068
0.000102099
0.000107963
0.000107966
0.000107963
0.00010209
0.000102072
0.000102102
0.000107958
0.000107946
0.000107958
0.000107946
0.000102073
0.000102105
0.000107963
0.000107941
0.000107962
0.000107941
0.000107958
0.000107971
0.000107958
0.000102068
0.0001021
0.000107963
0.000107966
0.000107963
0.00010209
0.000102072
0.000102103
0.000107958
0.000107946
0.000107958
0.000107946
0.000102074
0.000102105
0.000107962
0.000107941
0.000107962
0.000107941
0.000107958
0.000107971
0.000107957
0.000102069
0.000102099
0.000107963
0.000107966
0.000107963
0.000102089
0.000102072
0.000102104
0.000107958
0.000107946
0.000107958
0.000107946
0.000102074
0.000102104
0.000107962
0.000107941
0.000107962
0.000107941
0.000107958
0.000107971
0.000107958
0.000102069
0.000102099
0.000107963
0.000107966
0.000107963
0.000102089
0.000102073
0.000102104
0.000107958
0.000107946
0.000107958
0.000107946
0.000102074
0.000102104
0.000107963
0.000107941
0.000107962
0.000107941
0.000107958
0.000107971
0.000107957
0.000102068
0.000102099
0.000107963
0.000107966
0.000107963
0.00010209
0.000102074
0.000102104
0.000107958
0.000107946
0.000107958
0.000107946
0.000102073
0.000102104
0.000107963
0.000107941
0.000107962
0.000107941
0.000107958
0.000107971
0.000107958
0.000102068
0.0001021
0.000107963
0.000107966
0.000107963
0.00010209
0.000102074
0.000102104
0.000107958
0.000107946
0.000107958
0.000107946
0.000102073
0.000102104
0.000107963
0.000107942
0.000107962
0.000107941
0.000107958
0.000107971
0.000107958
0.000102069
0.000102099
0.000107963
0.000107966
0.000107963
0.000102089
0.000102074
0.000102103
0.000107958
0.000107946
0.000107958
0.000107946
0.000102074
0.000102104
0.000107963
0.000107942
0.000107962
0.000107941
0.000107958
0.000107971
0.000107958
0.000102069
0.000102098
0.000107963
0.000107966
0.000107963
0.000102089
0.000102074
0.000102103
0.000107959
0.000107946
0.000107958
0.000107946
0.000102074
0.000102104
0.000107963
0.000107942
0.000107962
0.000107941
0.000107958
0.000107971
0.000107957
0.000102068
0.000102098
0.000107963
0.000107966
0.000107963
0.00010209
0.000102073
0.000102103
0.000107958
0.000107946
0.000107958
0.000107946
0.000102073
0.000102104
0.000107963
0.000107942
0.000107962
0.000107941
0.000107958
0.00010797
0.000107957
0.000102068
0.000102099
0.000107963
0.000107966
0.000107963
0.00010209
0.000102072
0.000102103
0.000107958
0.000107946
0.000107958
0.000107945
0.000102073
0.000102104
0.000107962
0.000107941
0.000107962
0.000107941
0.000107958
0.00010797
0.000107957
0.000102068
0.000102099
0.000107963
0.000107966
0.000107963
0.00010209
0.000102073
0.000102104
0.000107958
0.000107945
0.000107958
0.000107945
0.000102073
0.000102104
0.000107962
0.000107941
0.000107962
0.000107941
0.000107958
0.00010797
0.000107957
0.000102069
0.000102099
0.000107963
0.000107966
0.000107963
0.00010209
0.000102073
0.000102104
0.000107958
0.000107945
0.000107958
0.000107945
0.000102074
0.000102104
0.000107962
0.000107941
0.000107962
0.000107941
0.000107958
0.00010797
0.000107957
0.000102069
0.000102099
0.000107963
0.000107966
0.000107963
0.00010209
0.000102074
0.000102104
0.000107958
0.000107946
0.000107958
0.000107945
0.000102074
0.000102104
0.000107962
0.000107941
0.000107962
0.000107941
0.000107958
0.000107971
0.000107957
0.000102068
0.000102099
0.000107963
0.000107966
0.000107963
0.00010209
0.000102074
0.000102103
0.000107958
0.000107946
0.000107958
0.000107946
0.000102074
0.000102104
0.000107963
0.000107942
0.000107962
0.000107941
0.000107958
0.000107971
0.000107957
0.000102068
0.000102099
0.000107963
0.000107966
0.000107963
0.000102089
0.000102074
0.000102104
0.000107959
0.000107946
0.000107958
0.000107946
0.000102074
0.000102104
0.000107963
0.000107942
0.000107963
0.000107941
0.000107958
0.000107971
0.000107957
0.000102068
0.000102099
0.000107964
0.000107966
0.000107963
0.000102089
0.000102074
0.000102103
0.000107959
0.000107947
0.000107959
0.000107946
0.000102074
0.000102104
0.000107963
0.000107942
0.000107963
0.000107942
0.000107958
0.000107971
0.000107958
0.000102069
0.000102099
0.000107964
0.000107966
0.000107963
0.00010209
0.000102074
0.000102103
0.00010796
0.000107947
0.000107959
0.000107946
0.000102074
0.000102105
0.000107964
0.000107943
0.000107963
0.000107942
0.000107959
0.000107971
0.000107958
0.000102069
0.000102099
0.000107964
0.000107966
0.000107964
0.00010209
0.000102074
0.000102103
0.00010796
0.000107948
0.000107959
0.000107946
0.000102074
0.000102105
0.000107964
0.000107943
0.000107963
0.000107942
0.000107959
0.000107971
0.000107958
0.000102069
0.000102099
0.000107965
0.000107966
0.000107964
0.00010209
0.000102074
0.000102103
0.000107961
0.000107948
0.000107959
0.000107947
0.000102074
0.000102105
0.000107965
0.000107944
0.000107964
0.000107942
0.00010796
0.000107972
0.000107959
0.000102069
0.000102099
0.000107965
0.000107967
0.000107964
0.000102091
0.000102074
0.000102104
0.000107961
0.000107949
0.00010796
0.000107947
0.000102075
0.000102106
0.000107966
0.000107945
0.000107964
0.000107943
0.000107961
0.000107972
0.000107959
0.000102069
0.0001021
0.000107966
0.000107967
0.000107964
0.000102092
0.000102074
0.000102105
0.000107963
0.00010795
0.000107961
0.000107949
0.000102076
0.000102106
0.000107967
0.000107946
0.000107965
0.000107944
0.000107962
0.000107973
0.00010796
0.00010207
0.000102101
0.000107967
0.000107968
0.000107966
0.000102091
0.000102075
0.000102106
0.000107965
0.000107952
0.000107963
0.000107951
0.000102076
0.000102106
0.000107969
0.000107948
0.000107967
0.000107946
0.000107964
0.000107975
0.000107962
0.00010207
0.000102102
0.000107969
0.00010797
0.000107968
0.000102091
0.000102076
0.000102108
0.000107968
0.000107955
0.000107967
0.000107954
0.000102077
0.000102108
0.000107972
0.000107951
0.000107971
0.00010795
0.000107967
0.000107979
0.000107966
0.000102072
0.000102103
0.000107972
0.000107974
0.000107971
0.000102094
0.000102078
0.00010211
0.000107973
0.000107961
0.000107974
0.000107962
0.000102078
0.000102111
0.000107978
0.000107956
0.000107979
0.000107957
0.000107973
0.000107986
0.000107973
0.000102074
0.000102106
0.000107978
0.000107981
0.000107978
0.000102096
0.000102081
0.000102115
0.000107983
0.00010797
0.000107987
0.000107975
0.000102081
0.000102116
0.000107987
0.000107966
0.000107992
0.000107971
0.000107982
0.000108
0.000107987
0.000102076
0.00010211
0.000107987
0.000107995
0.000107992
0.000102098
0.000102085
0.000102123
0.000107999
0.000107988
0.000108015
0.000108004
0.000102086
0.000102124
0.000108004
0.000107983
0.00010802
0.000108
0.000107999
0.000108027
0.000108014
0.00010208
0.000102118
0.000108005
0.000108023
0.000108021
0.000102108
0.00010209
0.000102278
0.000107987
0.000107976
0.000108394
0.000108383
0.000102091
0.000102278
0.000107993
0.000107971
0.0001084
0.000108379
0.000107985
0.000108407
0.000108392
0.000102086
0.000102273
0.000107993
0.000108403
0.0001084
0.000102275
0.000102508
0.000108134
0.000108124
0.000102507
0.000108139
0.00010812
0.000119111
0.000119109
0.000119111
0.000108133
0.000102503
0.000108139
9.3999e-05
2.26972e-05
6.63355e-05
6.62763e-05
5.67623e-07
3.70666e-06
1.81698e-06
4.39261e-05
5.46499e-07
4.02188e-06
4.40167e-05
1.81764e-06
1.93615e-06
9.9718e-07
1.79747e-06
9.96636e-07
1.35525e-05
8.83286e-07
1.50654e-05
1.08807e-05
1.3115e-05
1.00556e-06
1.373e-05
9.14682e-07
1.52058e-05
4.25786e-05
4.28358e-05
4.26982e-05
4.29079e-05
4.28865e-05
4.31379e-05
4.30167e-05
5.50132e-07
7.11485e-07
2.15543e-05
4.88387e-06
5.59923e-07
8.62932e-07
2.11613e-05
1.10673e-05
1.32855e-05
5.56374e-07
2.25079e-05
5.73727e-07
5.19327e-06
5.55572e-07
2.25584e-05
7.00676e-07
1.30168e-06
1.50541e-06
1.9497e-06
1.52724e-06
1.70929e-06
1.22874e-06
1.84748e-05
1.11909e-06
2.06991e-05
1.71271e-05
1.93013e-05
1.24692e-06
1.86974e-05
1.1502e-06
2.10314e-05
4.32756e-05
4.35139e-05
4.34031e-05