/*--------------------------------*- C++ -*----------------------------------*\
| =========                 |                                                 |
| \\      /  F ield         | OpenFOAM: The Open Source CFD Toolbox           |
|  \\    /   O peration     | Version:  v1906                                 |
|   \\  /    A nd           | Web:      www.OpenFOAM.com                      |
|    \\/     M anipulation  |                                                 |
\*---------------------------------------------------------------------------*/
FoamFile
{
    version     2.0;
    format      ascii;
    class       volScalarField;
    location    "112.5";
    object      p;
}
// * * * * * * * * * * * * * * * * * * * * * * * * * * * * * * * * * * * * * //

dimensions      [0 2 -2 0 0 0 0];


internalField   nonuniform List<scalar> 
171728
(
0.00353142
0.00353104
0.00353102
0.00353266
0.00349452
0.00349383
0.00349374
0.00349687
0.00345806
0.00345697
0.00345683
0.00345927
0.00341296
0.00341208
0.00341198
0.00341469
0.00336493
0.003364
0.00336401
0.00336673
0.00331682
0.00331599
0.00331598
0.00331869
0.00326877
0.00326807
0.00326806
0.0032708
0.0032217
0.00322108
0.00322104
0.0032238
0.00317553
0.00317506
0.00317498
0.00317773
0.00313041
0.00312993
0.00312993
0.00313269
0.00308617
0.00308572
0.00308578
0.00308853
0.00304267
0.0030423
0.00304233
0.00304505
0.0029997
0.00299944
0.00299946
0.00300213
0.00295713
0.00295696
0.00295693
0.00295965
0.00291497
0.0029148
0.0029148
0.00291752
0.00287311
0.002873
0.002873
0.00287567
0.00283172
0.00283161
0.00283161
0.00283422
0.00279076
0.0027906
0.0027906
0.00279314
0.00275053
0.00275034
0.00275033
0.00275272
0.00271124
0.00271098
0.00271096
0.00271331
0.00267354
0.00267329
0.00267329
0.00267563
0.00263753
0.00263725
0.00263726
0.00263961
0.00260123
0.00260098
0.00260099
0.00260344
0.00256367
0.00256343
0.00256343
0.00256601
0.00252512
0.00252488
0.00252488
0.00252741
0.00248652
0.00248631
0.00248631
0.00248869
0.00244855
0.0024484
0.0024484
0.00245064
0.00241144
0.00241135
0.00241135
0.00241351
0.002375
0.00237494
0.00237494
0.00237707
0.00233889
0.00233884
0.00233884
0.00234096
0.00230286
0.00230281
0.00230281
0.00230494
0.00226685
0.0022668
0.0022668
0.00226893
0.00223084
0.00223079
0.00223079
0.00223292
0.00219483
0.00219478
0.00219478
0.00219691
0.00215882
0.00215877
0.00215877
0.0021609
0.00212281
0.00212276
0.00212276
0.00212489
0.0020868
0.00208676
0.00208676
0.00208888
0.00205079
0.00205075
0.00205075
0.00205288
0.00201478
0.00201474
0.00201474
0.00201687
0.00197877
0.00197873
0.00197873
0.00198086
0.00194276
0.00194272
0.00194272
0.00194485
0.00190675
0.0019067
0.0019067
0.00190883
0.00187073
0.00187069
0.00187069
0.00187281
0.00183471
0.00183467
0.00183467
0.0018368
0.00179869
0.00179865
0.00179865
0.00180077
0.00176267
0.00176263
0.00176262
0.00176475
0.00172665
0.0017266
0.0017266
0.00172873
0.00169063
0.00169058
0.00169058
0.00169271
0.00165461
0.00165456
0.00165456
0.00165669
0.00161859
0.00161854
0.00161854
0.00162067
0.00158257
0.00158252
0.00158252
0.00158465
0.00154655
0.0015465
0.0015465
0.00154863
0.00151053
0.00151048
0.00151048
0.00151261
0.00147451
0.00147446
0.00147446
0.00147659
0.00143848
0.00143844
0.00143844
0.00144057
0.00140246
0.00140242
0.00140242
0.00140454
0.00136644
0.00136639
0.00136639
0.00136852
0.00133041
0.00133036
0.00133036
0.00133249
0.00129438
0.00129434
0.00129434
0.00129647
0.00125836
0.00125831
0.00125831
0.00126044
0.00122234
0.00122229
0.00122229
0.00122442
0.00118631
0.00118627
0.00118627
0.0011884
0.00115029
0.00115025
0.00115025
0.00115238
0.00111428
0.00111423
0.00111423
0.00111636
0.00107826
0.00107821
0.00107821
0.00108034
0.00104224
0.0010422
0.0010422
0.00104432
0.00100622
0.00100618
0.00100618
0.00100831
0.000970203
0.000970158
0.000970158
0.000972286
0.000934183
0.000934138
0.000934138
0.000936267
0.000898163
0.000898119
0.000898119
0.000900247
0.000862143
0.000862098
0.000862098
0.000864227
0.00082612
0.000826075
0.000826075
0.000828204
0.000790095
0.000790051
0.000790051
0.000792179
0.000754069
0.000754025
0.000754025
0.000756153
0.000718043
0.000717998
0.000717998
0.000720127
0.000682015
0.00068197
0.00068197
0.000684099
0.000645988
0.000645943
0.000645943
0.000648072
0.000609961
0.000609917
0.000609917
0.000612045
0.000573935
0.000573891
0.000573891
0.000576019
0.00053791
0.000537865
0.000537865
0.000539993
0.000501885
0.00050184
0.00050184
0.000503968
0.000465859
0.000465814
0.000465814
0.000467942
0.000429833
0.000429788
0.000429788
0.000431916
0.000393809
0.000393764
0.000393764
0.000395891
0.000357784
0.000357739
0.000357739
0.000359866
0.000321759
0.000321714
0.000321714
0.00032384
0.000285733
0.000285689
0.000285689
0.000287813
0.000249708
0.000249664
0.000249664
0.000251785
0.00021368
0.000213637
0.000213637
0.000215754
0.000177647
0.000177607
0.000177607
0.000179716
0.000141608
0.000141572
0.000141572
0.000143669
0.000105555
0.000105529
0.000105529
0.000107608
6.95136e-05
6.94739e-05
6.94726e-05
7.15268e-05
3.43573e-05
3.39219e-05
3.39182e-05
3.56766e-05
4.67156e-06
3.94335e-06
3.94364e-06
4.00729e-06
0.00353808
0.00353681
0.00353679
0.00353807
0.00353684
0.00353684
0.00354053
0.00354053
0.00354056
0.00354053
0.00353683
0.00353676
0.00353808
0.00353685
0.00353677
0.00353804
0.00353267
0.00350117
0.00353106
0.00353103
0.00350257
0.00350261
0.00353267
0.00350118
0.00353103
0.00353107
0.00350256
0.00350258
0.00353103
0.00350258
0.00350264
0.00353268
0.00350116
0.00353105
0.00350269
0.00350259
0.00350118
0.00349688
0.00346463
0.00349385
0.00349378
0.00346689
0.00346695
0.00349688
0.00346464
0.00349384
0.00349384
0.0034669
0.00346687
0.00349378
0.00346689
0.00346691
0.00349687
0.0034646
0.00349385
0.00346695
0.00346684
0.00346464
0.00345928
0.00342087
0.00345696
0.0034569
0.00342388
0.00342391
0.00345928
0.00342085
0.00345696
0.00345691
0.00342388
0.00342387
0.00345689
0.00342387
0.00342389
0.00345924
0.00342083
0.0034569
0.00342392
0.00342385
0.00342084
0.0034147
0.00337299
0.00341203
0.00341201
0.00337604
0.00337604
0.0034147
0.00337298
0.00341206
0.00341203
0.00337605
0.00337599
0.00341202
0.00337605
0.00337602
0.00341468
0.00337297
0.00341202
0.003376
0.00337604
0.00337297
0.00336674
0.00332493
0.00336401
0.00336401
0.00332803
0.00332802
0.00336673
0.00332493
0.003364
0.00336403
0.00332804
0.00332803
0.00336401
0.00332805
0.00332802
0.00336673
0.00332491
0.00336398
0.00332802
0.00332803
0.00332493
0.00331869
0.00327696
0.003316
0.00331599
0.00327997
0.00327996
0.00331869
0.00327696
0.00331601
0.00331597
0.00327997
0.00327995
0.00331598
0.00327995
0.00327996
0.00331868
0.00327694
0.00331598
0.00327993
0.00327995
0.00327695
0.00327081
0.00322982
0.00326806
0.00326805
0.00323272
0.00323274
0.00327082
0.00322983
0.00326804
0.00326806
0.00323273
0.00323273
0.00326805
0.00323273
0.00323273
0.0032708
0.00322982
0.00326806
0.00323274
0.00323274
0.00322981
0.00322381
0.00318362
0.00322107
0.00322107
0.00318642
0.00318642
0.00322383
0.00318361
0.00322107
0.00322103
0.00318644
0.00318639
0.00322107
0.00318642
0.00318641
0.00322381
0.00318362
0.00322106
0.00318639
0.0031864
0.00318361
0.00317774
0.00313843
0.00317497
0.00317499
0.0031411
0.00314109
0.00317775
0.00313843
0.00317496
0.00317495
0.00314111
0.0031411
0.00317498
0.00314114
0.0031411
0.00317774
0.00313844
0.00317498
0.0031411
0.0031411
0.00313844
0.00313269
0.00309416
0.00312995
0.00312991
0.00309672
0.00309676
0.0031327
0.00309414
0.00312991
0.00312993
0.00309673
0.00309674
0.00312994
0.0030967
0.00309675
0.00313269
0.00309417
0.00312993
0.00309672
0.00309674
0.00309415
0.00308851
0.00305064
0.00308576
0.00308574
0.00305311
0.00305312
0.00308851
0.00305055
0.00308573
0.00308575
0.00305315
0.00305313
0.00308576
0.00305308
0.00305312
0.00308853
0.00305061
0.00308577
0.00305314
0.00305313
0.00305059
0.00304508
0.00300766
0.00304235
0.00304235
0.00301011
0.00301008
0.003045
0.00300761
0.00304236
0.00304233
0.00301009
0.00301013
0.00304235
0.00301003
0.00301011
0.00304507
0.00300759
0.00304234
0.00301012
0.00301011
0.00300761
0.00300215
0.00296499
0.00299941
0.00299945
0.00296754
0.00296756
0.00300213
0.00296509
0.00299944
0.00299948
0.00296746
0.00296753
0.00299946
0.00296756
0.00296757
0.00300212
0.00296509
0.00299945
0.00296753
0.00296756
0.00296508
0.00295957
0.00292286
0.00295694
0.00295697
0.00292531
0.00292534
0.00295966
0.00292287
0.00295685
0.00295697
0.0029253
0.00292529
0.00295694
0.00292533
0.00292532
0.00295965
0.00292283
0.00295695
0.00292531
0.00292533
0.00292289
0.00291749
0.00288095
0.00291482
0.00291481
0.00288342
0.00288338
0.0029175
0.00288091
0.00291484
0.00291478
0.00288342
0.0028834
0.00291478
0.0028834
0.00288341
0.00291745
0.00288096
0.00291479
0.0028834
0.00288343
0.002881
0.00287562
0.00283948
0.002873
0.00287293
0.00284191
0.00284184
0.00287557
0.00283953
0.00287301
0.002873
0.00284191
0.0028419
0.00287297
0.00284191
0.00284193
0.00287563
0.00283951
0.00287299
0.00284191
0.00284195
0.0028395
0.00283419
0.00279839
0.00283161
0.00283157
0.00280083
0.00280086
0.00283425
0.0027984
0.00283162
0.00283161
0.00280081
0.00280079
0.00283159
0.00280082
0.00280084
0.00283421
0.0027984
0.00283161
0.00280079
0.00280082
0.00279834
0.00279316
0.00275794
0.00279065
0.00279065
0.00276035
0.00276037
0.00279317
0.00275794
0.00279061
0.0027906
0.00276035
0.00276034
0.00279062
0.00276032
0.00276029
0.00279316
0.00275793
0.00279061
0.00276032
0.00276031
0.00275791
0.00275281
0.00271836
0.00275037
0.00275038
0.00272071
0.0027207
0.00275281
0.00271834
0.00275036
0.00275035
0.00272069
0.0027207
0.00275029
0.0027207
0.00272061
0.0027528
0.00271832
0.00275031
0.00272069
0.0027206
0.00271826
0.00271335
0.00268021
0.00271097
0.00271097
0.00268243
0.00268248
0.00271334
0.00268027
0.00271096
0.00271097
0.00268248
0.0026825
0.00271093
0.0026825
0.00268259
0.00271333
0.00268029
0.00271091
0.00268251
0.00268256
0.00268038
0.00267549
0.00264421
0.00267321
0.00267326
0.00264621
0.00264619
0.00267554
0.00264418
0.00267326
0.00267328
0.0026462
0.00264619
0.00267337
0.00264621
0.00264623
0.00267555
0.00264418
0.00267336
0.00264621
0.00264624
0.00264421
0.00263962
0.0026082
0.00263728
0.00263725
0.00261019
0.00261016
0.00263959
0.00260819
0.00263726
0.00263724
0.00261017
0.00261016
0.00263726
0.00261015
0.00261015
0.00263959
0.00260819
0.00263728
0.00261016
0.00261015
0.00260818
0.00260347
0.00257095
0.00260101
0.00260099
0.00257295
0.00257295
0.00260345
0.00257095
0.00260099
0.00260099
0.00257295
0.00257295
0.00260098
0.00257295
0.00257294
0.00260346
0.00257095
0.00260098
0.00257295
0.00257295
0.00257094
0.00256601
0.00253247
0.00256343
0.00256343
0.00253455
0.00253455
0.00256601
0.00253247
0.00256343
0.00256343
0.00253455
0.00253455
0.00256342
0.00253455
0.00253455
0.00256601
0.00253247
0.00256343
0.00253455
0.00253455
0.00253247
0.00252741
0.00249372
0.00252488
0.00252488
0.00249591
0.00249591
0.00252741
0.00249372
0.00252488
0.00252488
0.00249591
0.00249591
0.00252488
0.00249591
0.00249591
0.00252741
0.00249373
0.00252488
0.00249591
0.00249591
0.00249372
0.00248869
0.00245558
0.00248631
0.00248631
0.00245779
0.00245779
0.00248869
0.00245558
0.00248631
0.00248631
0.00245779
0.00245779
0.00248631
0.00245779
0.00245779
0.00248869
0.00245558
0.00248631
0.00245779
0.00245779
0.00245558
0.00245064
0.00241835
0.0024484
0.0024484
0.00242054
0.00242054
0.00245064
0.00241835
0.0024484
0.0024484
0.00242054
0.00242054
0.0024484
0.00242054
0.00242054
0.00245064
0.00241835
0.0024484
0.00242054
0.00242054
0.00241835
0.00241351
0.00238184
0.00241135
0.00241135
0.002384
0.002384
0.00241351
0.00238184
0.00241135
0.00241135
0.002384
0.002384
0.00241135
0.002384
0.002384
0.00241351
0.00238184
0.00241135
0.002384
0.002384
0.00238184
0.00237707
0.00234572
0.00237494
0.00237494
0.00234785
0.00234785
0.00237707
0.00234572
0.00237494
0.00237494
0.00234785
0.00234785
0.00237494
0.00234785
0.00234785
0.00237707
0.00234572
0.00237494
0.00234785
0.00234785
0.00234572
0.00234096
0.00230969
0.00233884
0.00233884
0.00231182
0.00231182
0.00234096
0.00230969
0.00233884
0.00233884
0.00231182
0.00231182
0.00233884
0.00231182
0.00231182
0.00234096
0.00230969
0.00233884
0.00231182
0.00231182
0.00230969
0.00230494
0.00227368
0.00230281
0.00230281
0.00227581
0.00227581
0.00230494
0.00227368
0.00230282
0.00230282
0.00227581
0.00227581
0.00230282
0.00227581
0.00227581
0.00230494
0.00227368
0.00230281
0.00227581
0.00227581
0.00227368
0.00226893
0.00223767
0.0022668
0.0022668
0.0022398
0.0022398
0.00226893
0.00223767
0.0022668
0.0022668
0.0022398
0.0022398
0.0022668
0.0022398
0.0022398
0.00226893
0.00223767
0.0022668
0.0022398
0.0022398
0.00223767
0.00223292
0.00220166
0.00223079
0.00223079
0.00220379
0.00220379
0.00223292
0.00220166
0.00223079
0.00223079
0.00220379
0.00220379
0.00223079
0.00220379
0.00220379
0.00223292
0.00220166
0.00223079
0.00220379
0.00220379
0.00220166
0.00219691
0.00216565
0.00219478
0.00219478
0.00216778
0.00216778
0.00219691
0.00216565
0.00219478
0.00219478
0.00216778
0.00216778
0.00219478
0.00216778
0.00216778
0.00219691
0.00216565
0.00219478
0.00216778
0.00216778
0.00216565
0.0021609
0.00212964
0.00215877
0.00215877
0.00213177
0.00213177
0.0021609
0.00212964
0.00215877
0.00215877
0.00213177
0.00213177
0.00215877
0.00213177
0.00213177
0.0021609
0.00212964
0.00215877
0.00213177
0.00213177
0.00212964
0.00212489
0.00209363
0.00212276
0.00212276
0.00209576
0.00209576
0.00212489
0.00209363
0.00212276
0.00212276
0.00209576
0.00209576
0.00212276
0.00209576
0.00209576
0.00212489
0.00209363
0.00212276
0.00209576
0.00209576
0.00209363
0.00208888
0.00205763
0.00208676
0.00208676
0.00205975
0.00205975
0.00208888
0.00205763
0.00208676
0.00208676
0.00205975
0.00205975
0.00208676
0.00205975
0.00205975
0.00208888
0.00205763
0.00208676
0.00205975
0.00205975
0.00205763
0.00205288
0.00202162
0.00205075
0.00205075
0.00202374
0.00202374
0.00205288
0.00202162
0.00205075
0.00205075
0.00202374
0.00202374
0.00205075
0.00202374
0.00202374
0.00205288
0.00202162
0.00205075
0.00202374
0.00202374
0.00202162
0.00201687
0.00198561
0.00201474
0.00201474
0.00198773
0.00198773
0.00201687
0.00198561
0.00201474
0.00201474
0.00198773
0.00198773
0.00201474
0.00198773
0.00198773
0.00201687
0.00198561
0.00201474
0.00198773
0.00198773
0.00198561
0.00198086
0.0019496
0.00197873
0.00197873
0.00195172
0.00195172
0.00198086
0.0019496
0.00197873
0.00197873
0.00195172
0.00195172
0.00197873
0.00195172
0.00195172
0.00198086
0.0019496
0.00197873
0.00195172
0.00195172
0.0019496
0.00194485
0.00191358
0.00194272
0.00194272
0.00191571
0.00191571
0.00194485
0.00191358
0.00194272
0.00194272
0.00191571
0.00191571
0.00194272
0.00191571
0.00191571
0.00194485
0.00191358
0.00194272
0.00191571
0.00191571
0.00191358
0.00190883
0.00187757
0.0019067
0.0019067
0.00187969
0.00187969
0.00190883
0.00187757
0.0019067
0.0019067
0.00187969
0.00187969
0.0019067
0.00187969
0.00187969
0.00190883
0.00187757
0.0019067
0.00187969
0.00187969
0.00187757
0.00187281
0.00184155
0.00187069
0.00187069
0.00184367
0.00184367
0.00187281
0.00184155
0.00187069
0.00187069
0.00184367
0.00184367
0.00187069
0.00184367
0.00184367
0.00187281
0.00184155
0.00187069
0.00184367
0.00184367
0.00184155
0.00183679
0.00180553
0.00183467
0.00183467
0.00180765
0.00180765
0.00183679
0.00180553
0.00183467
0.00183467
0.00180765
0.00180765
0.00183467
0.00180765
0.00180765
0.0018368
0.00180553
0.00183467
0.00180765
0.00180765
0.00180553
0.00180077
0.00176951
0.00179865
0.00179865
0.00177163
0.00177163
0.00180077
0.00176951
0.00179865
0.00179865
0.00177163
0.00177163
0.00179865
0.00177163
0.00177163
0.00180077
0.00176951
0.00179865
0.00177163
0.00177163
0.00176951
0.00176475
0.00173348
0.00176262
0.00176262
0.00173561
0.00173561
0.00176475
0.00173348
0.00176262
0.00176262
0.00173561
0.00173561
0.00176263
0.00173561
0.00173561
0.00176475
0.00173348
0.00176262
0.00173561
0.00173561
0.00173348
0.00172873
0.00169746
0.0017266
0.0017266
0.00169959
0.00169959
0.00172873
0.00169746
0.0017266
0.0017266
0.00169959
0.00169959
0.0017266
0.00169959
0.00169959
0.00172873
0.00169746
0.0017266
0.00169959
0.00169959
0.00169746
0.00169271
0.00166144
0.00169058
0.00169058
0.00166357
0.00166357
0.00169271
0.00166144
0.00169058
0.00169058
0.00166357
0.00166357
0.00169058
0.00166357
0.00166357
0.00169271
0.00166144
0.00169058
0.00166357
0.00166357
0.00166144
0.00165669
0.00162542
0.00165456
0.00165456
0.00162755
0.00162755
0.00165669
0.00162542
0.00165456
0.00165456
0.00162755
0.00162755
0.00165456
0.00162755
0.00162755
0.00165669
0.00162542
0.00165456
0.00162755
0.00162755
0.00162542
0.00162067
0.0015894
0.00161854
0.00161854
0.00159153
0.00159153
0.00162067
0.0015894
0.00161854
0.00161854
0.00159153
0.00159153
0.00161854
0.00159153
0.00159153
0.00162067
0.0015894
0.00161854
0.00159153
0.00159153
0.0015894
0.00158465
0.00155338
0.00158252
0.00158252
0.00155551
0.00155551
0.00158465
0.00155338
0.00158252
0.00158252
0.00155551
0.00155551
0.00158252
0.00155551
0.00155551
0.00158465
0.00155338
0.00158252
0.00155551
0.00155551
0.00155338
0.00154863
0.00151736
0.0015465
0.0015465
0.00151949
0.00151949
0.00154863
0.00151736
0.0015465
0.0015465
0.00151949
0.00151949
0.0015465
0.00151949
0.00151949
0.00154863
0.00151736
0.0015465
0.00151949
0.00151949
0.00151736
0.00151261
0.00148134
0.00151048
0.00151048
0.00148347
0.00148347
0.00151261
0.00148134
0.00151048
0.00151048
0.00148347
0.00148347
0.00151048
0.00148347
0.00148347
0.00151261
0.00148134
0.00151048
0.00148347
0.00148347
0.00148134
0.00147659
0.00144532
0.00147446
0.00147446
0.00144744
0.00144744
0.00147659
0.00144532
0.00147446
0.00147446
0.00144744
0.00144744
0.00147446
0.00144744
0.00144744
0.00147659
0.00144532
0.00147446
0.00144744
0.00144744
0.00144532
0.00144057
0.0014093
0.00143844
0.00143844
0.00141142
0.00141142
0.00144057
0.0014093
0.00143844
0.00143844
0.00141142
0.00141142
0.00143844
0.00141142
0.00141142
0.00144057
0.0014093
0.00143844
0.00141142
0.00141142
0.0014093
0.00140454
0.00137327
0.00140242
0.00140242
0.0013754
0.0013754
0.00140454
0.00137327
0.00140242
0.00140242
0.0013754
0.0013754
0.00140242
0.0013754
0.0013754
0.00140454
0.00137327
0.00140242
0.0013754
0.0013754
0.00137327
0.00136852
0.00133725
0.00136639
0.00136639
0.00133937
0.00133937
0.00136852
0.00133725
0.00136639
0.00136639
0.00133937
0.00133937
0.00136639
0.00133937
0.00133937
0.00136852
0.00133725
0.00136639
0.00133937
0.00133937
0.00133725
0.00133249
0.00130122
0.00133036
0.00133036
0.00130335
0.00130334
0.00133249
0.00130122
0.00133036
0.00133036
0.00130334
0.00130335
0.00133036
0.00130335
0.00130334
0.00133249
0.00130122
0.00133036
0.00130335
0.00130334
0.00130122
0.00129647
0.00126519
0.00129434
0.00129434
0.00126732
0.00126732
0.00129647
0.0012652
0.00129434
0.00129434
0.00126732
0.00126732
0.00129434
0.00126732
0.00126732
0.00129647
0.00126519
0.00129434
0.00126732
0.00126732
0.0012652
0.00126044
0.00122917
0.00125831
0.00125831
0.0012313
0.0012313
0.00126044
0.00122917
0.00125831
0.00125831
0.0012313
0.0012313
0.00125831
0.0012313
0.0012313
0.00126044
0.00122917
0.00125831
0.0012313
0.0012313
0.00122917
0.00122442
0.00119315
0.00122229
0.00122229
0.00119527
0.00119527
0.00122442
0.00119315
0.00122229
0.00122229
0.00119527
0.00119527
0.00122229
0.00119527
0.00119527
0.00122442
0.00119315
0.00122229
0.00119527
0.00119527
0.00119315
0.0011884
0.00115713
0.00118627
0.00118627
0.00115925
0.00115925
0.0011884
0.00115713
0.00118627
0.00118627
0.00115925
0.00115925
0.00118627
0.00115926
0.00115925
0.0011884
0.00115713
0.00118627
0.00115925
0.00115925
0.00115713
0.00115238
0.00112111
0.00115025
0.00115025
0.00112324
0.00112324
0.00115238
0.00112111
0.00115025
0.00115025
0.00112324
0.00112324
0.00115025
0.00112324
0.00112324
0.00115238
0.00112111
0.00115025
0.00112324
0.00112324
0.00112111
0.00111636
0.00108509
0.00111423
0.00111423
0.00108722
0.00108722
0.00111636
0.00108509
0.00111423
0.00111423
0.00108722
0.00108722
0.00111423
0.00108722
0.00108722
0.00111636
0.00108509
0.00111423
0.00108722
0.00108722
0.00108509
0.00108034
0.00104908
0.00107821
0.00107821
0.0010512
0.0010512
0.00108034
0.00104908
0.00107821
0.00107821
0.0010512
0.0010512
0.00107821
0.0010512
0.0010512
0.00108034
0.00104908
0.00107821
0.0010512
0.0010512
0.00104908
0.00104432
0.00101306
0.0010422
0.0010422
0.00101518
0.00101518
0.00104432
0.00101306
0.0010422
0.0010422
0.00101518
0.00101518
0.0010422
0.00101518
0.00101518
0.00104432
0.00101306
0.0010422
0.00101518
0.00101518
0.00101306
0.00100831
0.000977038
0.00100618
0.00100618
0.000979163
0.000979163
0.00100831
0.000977038
0.00100618
0.00100618
0.000979162
0.000979162
0.00100618
0.000979163
0.000979163
0.00100831
0.000977038
0.00100618
0.000979163
0.000979163
0.000977038
0.000972287
0.000941018
0.000970158
0.000970158
0.000943143
0.000943143
0.000972286
0.000941019
0.000970158
0.000970158
0.000943143
0.000943143
0.000970158
0.000943143
0.000943143
0.000972286
0.000941018
0.000970158
0.000943143
0.000943143
0.000941018
0.000936267
0.000904999
0.000934139
0.000934138
0.000907123
0.000907123
0.000936267
0.000904999
0.000934138
0.000934138
0.000907123
0.000907123
0.000934139
0.000907124
0.000907123
0.000936266
0.000904998
0.000934138
0.000907123
0.000907123
0.000904998
0.000900247
0.000868978
0.000898118
0.000898119
0.000871103
0.000871103
0.000900247
0.000868979
0.000898119
0.000898119
0.000871103
0.000871103
0.000898119
0.000871103
0.000871103
0.000900247
0.000868979
0.000898119
0.000871103
0.000871103
0.000868979
0.000864226
0.000832956
0.000862098
0.000862098
0.000835081
0.000835081
0.000864226
0.000832956
0.000862098
0.000862098
0.000835081
0.000835081
0.000862099
0.000835081
0.000835081
0.000864227
0.000832956
0.000862099
0.000835081
0.000835081
0.000832956
0.000828204
0.000796932
0.000826076
0.000826075
0.000799057
0.000799057
0.000828204
0.000796932
0.000826075
0.000826076
0.000799057
0.000799057
0.000826076
0.000799057
0.000799057
0.000828204
0.000796932
0.000826076
0.000799057
0.000799057
0.000796932
0.000792179
0.000760906
0.000790051
0.000790051
0.000763031
0.000763031
0.000792179
0.000760906
0.000790051
0.000790051
0.000763031
0.000763031
0.000790051
0.000763031
0.000763031
0.000792179
0.000760906
0.000790051
0.000763031
0.000763031
0.000760906
0.000756153
0.000724879
0.000754025
0.000754025
0.000727004
0.000727004
0.000756153
0.00072488
0.000754025
0.000754025
0.000727004
0.000727004
0.000754025
0.000727005
0.000727004
0.000756153
0.000724879
0.000754025
0.000727005
0.000727004
0.000724879
0.000720127
0.000688852
0.000717998
0.000717998
0.000690977
0.000690977
0.000720126
0.000688852
0.000717998
0.000717998
0.000690977
0.000690977
0.000717998
0.000690977
0.000690977
0.000720127
0.000688852
0.000717998
0.000690977
0.000690977
0.000688852
0.000684099
0.000652825
0.00068197
0.000681971
0.00065495
0.000654949
0.000684099
0.000652825
0.000681971
0.000681971
0.000654949
0.00065495
0.000681971
0.00065495
0.00065495
0.000684099
0.000652825
0.000681971
0.00065495
0.000654949
0.000652824
0.000648072
0.000616798
0.000645943
0.000645943
0.000618923
0.000618923
0.000648072
0.000616798
0.000645943
0.000645943
0.000618923
0.000618923
0.000645944
0.000618923
0.000618923
0.000648072
0.000616798
0.000645943
0.000618923
0.000618923
0.000616798
0.000612045
0.000580772
0.000609917
0.000609917
0.000582897
0.000582897
0.000612045
0.000580772
0.000609917
0.000609917
0.000582897
0.000582897
0.000609917
0.000582897
0.000582897
0.000612045
0.000580772
0.000609917
0.000582897
0.000582897
0.000580772
0.000576019
0.000544746
0.000573891
0.000573891
0.000546871
0.000546871
0.000576019
0.000544746
0.000573891
0.000573891
0.000546871
0.000546871
0.000573891
0.000546871
0.000546871
0.000576019
0.000544746
0.000573891
0.000546871
0.00054687
0.000544746
0.000539993
0.000508721
0.000537865
0.000537865
0.000510846
0.000510845
0.000539993
0.000508721
0.000537865
0.000537865
0.000510845
0.000510846
0.000537865
0.000510846
0.000510846
0.000539993
0.000508721
0.000537865
0.000510846
0.000510845
0.000508721
0.000503968
0.000472695
0.00050184
0.00050184
0.00047482
0.00047482
0.000503968
0.000472696
0.00050184
0.00050184
0.00047482
0.00047482
0.00050184
0.00047482
0.00047482
0.000503968
0.000472695
0.00050184
0.00047482
0.00047482
0.000472695
0.000467942
0.000436669
0.000465814
0.000465814
0.000438794
0.000438794
0.000467942
0.00043667
0.000465814
0.000465814
0.000438794
0.000438794
0.000465815
0.000438794
0.000438794
0.000467942
0.000436669
0.000465814
0.000438794
0.000438794
0.000436669
0.000431916
0.000400645
0.000429789
0.000429789
0.000402769
0.000402769
0.000431916
0.000400645
0.000429788
0.000429789
0.000402769
0.000402769
0.000429789
0.000402769
0.000402769
0.000431916
0.000400645
0.000429788
0.000402769
0.000402769
0.000400644
0.000395891
0.000364621
0.000393764
0.000393764
0.000366745
0.000366744
0.000395891
0.000364621
0.000393764
0.000393764
0.000366744
0.000366744
0.000393764
0.000366745
0.000366745
0.000395891
0.00036462
0.000393764
0.000366745
0.000366744
0.00036462
0.000359866
0.000328595
0.00035774
0.000357739
0.000330719
0.000330719
0.000359866
0.000328596
0.000357739
0.00035774
0.000330719
0.000330719
0.00035774
0.000330719
0.000330719
0.000359866
0.000328595
0.000357739
0.000330719
0.000330719
0.000328595
0.00032384
0.000292571
0.000321714
0.000321714
0.000294693
0.000294693
0.00032384
0.000292571
0.000321714
0.000321714
0.000294693
0.000294693
0.000321714
0.000294693
0.000294693
0.00032384
0.000292571
0.000321714
0.000294694
0.000294693
0.00029257
0.000287813
0.000256546
0.000285689
0.000285689
0.000258668
0.000258667
0.000287813
0.000256547
0.000285689
0.000285689
0.000258667
0.000258668
0.000285689
0.000258668
0.000258668
0.000287813
0.000256546
0.000285689
0.000258668
0.000258667
0.000256546
0.000251785
0.000220521
0.000249664
0.000249664
0.00022264
0.00022264
0.000251785
0.000220521
0.000249664
0.000249664
0.00022264
0.00022264
0.000249664
0.000222641
0.00022264
0.000251785
0.000220521
0.000249664
0.00022264
0.00022264
0.000220521
0.000215754
0.000184493
0.000213637
0.000213637
0.00018661
0.000186609
0.000215754
0.000184493
0.000213637
0.000213637
0.000186609
0.000186609
0.000213637
0.00018661
0.000186609
0.000215754
0.000184493
0.000213637
0.000186609
0.000186609
0.000184493
0.000179716
0.000148462
0.000177607
0.000177607
0.000150574
0.000150574
0.000179716
0.000148462
0.000177607
0.000177607
0.000150574
0.000150574
0.000177607
0.000150574
0.000150574
0.000179716
0.000148462
0.000177607
0.000150574
0.000150574
0.000148462
0.000143669
0.000112425
0.000141572
0.000141572
0.000114531
0.000114531
0.000143669
0.000112425
0.000141572
0.000141572
0.00011453
0.00011453
0.000141572
0.000114531
0.000114531
0.000143669
0.000112424
0.000141572
0.000114531
0.000114531
0.000112424
0.000107608
7.63739e-05
0.000105529
0.00010553
7.84724e-05
7.84725e-05
0.000107608
7.63747e-05
0.000105529
0.000105529
7.8472e-05
7.84716e-05
0.000105529
7.84725e-05
7.84716e-05
0.000107608
7.63731e-05
0.000105529
7.84716e-05
7.84715e-05
7.63731e-05
7.1528e-05
4.04612e-05
6.94742e-05
6.94742e-05
4.25915e-05
4.25922e-05
7.1528e-05
4.04622e-05
6.94734e-05
6.94727e-05
4.25902e-05
4.25885e-05
6.94732e-05
4.25913e-05
4.25882e-05
7.15273e-05
4.04585e-05
6.94729e-05
4.25882e-05
4.25875e-05
4.04582e-05
3.56804e-05
7.36049e-06
3.39228e-05
3.39236e-05
1.00074e-05
1.00064e-05
3.56808e-05
7.35937e-06
3.39217e-05
3.3919e-05
1.00065e-05
1.00026e-05
3.39183e-05
1.00045e-05
1.00006e-05
3.56771e-05
7.35661e-06
3.39182e-05
1.00031e-05
1.00025e-05
7.35514e-06
4.01122e-06
3.94825e-06
3.94524e-06
4.01097e-06
3.94227e-06
3.94152e-06
4.6707e-06
4.66911e-06
4.66862e-06
3.94201e-06
4.0088e-06
3.94044e-06
0.00354466
0.00354876
0.00354692
0.00354693
0.00356916
0.00355006
0.00357664
0.0035484
0.00356908
0.0035501
0.00354839
0.00357662
0.00355856
0.00357979
0.00357979
0.00351486
0.00352949
0.00353295
0.00350698
0.00350638
0.00351041
0.00351475
0.00352936
0.00353299
0.00350682
0.00353142
0.00353144
0.00353143
0.00350335
0.00350335
0.00350336
0.00350336
0.00351438
0.00352771
0.00353201
0.00352168
0.00353428
0.00351138
0.00352218
0.00350641
0.00351033
0.00351439
0.00353226
0.00352765
0.00352176
0.00353432
0.00352219
0.00351133
0.00353331
0.00353338
0.00351857
0.00351127
0.00351127
0.00348799
0.00350147
0.00350093
0.00348604
0.00349862
0.00348518
0.00348801
0.0035013
0.00350092
0.00348605
0.00349454
0.00349455
0.00349455
0.003468
0.00346801
0.00346798
0.003468
0.00348539
0.00350034
0.00349365
0.00348509
0.00349855
0.00348624
0.00348501
0.0034986
0.00348515
0.00348537
0.0034937
0.00350017
0.00348518
0.00349856
0.00348504
0.00348614
0.00350175
0.00350176
0.00348397
0.0034868
0.00348685
0.00344593
0.00346083
0.00346169
0.0034447
0.00345953
0.00344386
0.00344601
0.00346085
0.00346161
0.00344465
0.00345806
0.00345806
0.00345806
0.00342481
0.0034248
0.0034248
0.00342481
0.00344441
0.00346054
0.00345673
0.00344642
0.00345957
0.00344503
0.00344627
0.00345948
0.00344385
0.00344442
0.00345667
0.0034604
0.00344656
0.00345958
0.00344622
0.00344503
0.00346093
0.00346093
0.00344364
0.00344501
0.00344504
0.00339904
0.00341577
0.00341722
0.00339769
0.00341515
0.00339716
0.00339899
0.00341579
0.00341724
0.00339767
0.00341297
0.00341297
0.00341297
0.00337695
0.00337694
0.00337695
0.00337696
0.00339784
0.00341582
0.00341192
0.00340009
0.00341532
0.00339821
0.00339995
0.00341511
0.00339714
0.00339783
0.00341175
0.00341574
0.0034001
0.00341529
0.00339993
0.00339824
0.0034159
0.00341591
0.00339703
0.00339782
0.00339783
0.0033504
0.00336734
0.00336861
0.00334924
0.00336695
0.00334891
0.00335038
0.00336733
0.00336859
0.00334924
0.00336492
0.00336494
0.00336493
0.00332887
0.00332887
0.00332887
0.00332888
0.00334955
0.00336745
0.00336394
0.00335205
0.00336722
0.0033498
0.00335195
0.00336695
0.00334889
0.00334957
0.00336386
0.00336746
0.00335203
0.0033672
0.00335191
0.0033498
0.0033674
0.00336743
0.00334895
0.0033493
0.0033493
0.00330173
0.00331899
0.00331995
0.00330095
0.00331872
0.00330069
0.00330168
0.00331897
0.00331997
0.00330094
0.00331681
0.00331682
0.00331682
0.00328071
0.00328071
0.00328071
0.00328071
0.00330133
0.00331911
0.00331594
0.00330395
0.00331898