/*--------------------------------*- C++ -*----------------------------------*\
| =========                 |                                                 |
| \\      /  F ield         | OpenFOAM: The Open Source CFD Toolbox           |
|  \\    /   O peration     | Version:  v1906                                 |
|   \\  /    A nd           | Web:      www.OpenFOAM.com                      |
|    \\/     M anipulation  |                                                 |
\*---------------------------------------------------------------------------*/
FoamFile
{
    version     2.0;
    format      ascii;
    class       volScalarField;
    location    "287.5";
    object      epsilon;
}
// * * * * * * * * * * * * * * * * * * * * * * * * * * * * * * * * * * * * * //

dimensions      [0 2 -3 0 0 0 0];


internalField   nonuniform List<scalar> 
171728
(
4.35237e-09
4.9046e-09
4.21069e-09
5.10448e-09
4.33083e-09
4.44204e-09
4.09087e-09
4.62315e-09
4.3067e-09
4.02868e-09
3.96453e-09
4.119e-09
4.28163e-09
3.67318e-09
3.91232e-09
3.75428e-09
4.26212e-09
3.36937e-09
3.91761e-09
3.44379e-09
4.25046e-09
3.1173e-09
3.97863e-09
3.16244e-09
4.24821e-09
2.9026e-09
3.99872e-09
2.93176e-09
4.25223e-09
2.73447e-09
3.92269e-09
2.74131e-09
4.26524e-09
2.61437e-09
3.73029e-09
2.59101e-09
4.2827e-09
2.53615e-09
3.50179e-09
2.47833e-09
4.30677e-09
2.49877e-09
3.27155e-09
2.40293e-09
4.33771e-09
2.50598e-09
3.05162e-09
2.36225e-09
4.37334e-09
2.56438e-09
2.95642e-09
2.3672e-09
4.41471e-09
2.68489e-09
2.96827e-09
2.42624e-09
4.46151e-09
2.88794e-09
3.04918e-09
2.55999e-09
4.51488e-09
3.21302e-09
3.24104e-09
2.81495e-09
4.57451e-09
3.71343e-09
3.64296e-09
3.25436e-09
4.64168e-09
4.47982e-09
4.29559e-09
4.02943e-09
4.71871e-09
5.64897e-09
5.32667e-09
5.38281e-09
4.80512e-09
7.41539e-09
7.0736e-09
7.67132e-09
4.90737e-09
9.80827e-09
9.48104e-09
1.1938e-08
5.02704e-09
1.3083e-08
1.30006e-08
1.90527e-08
5.17191e-09
1.95805e-08
1.83602e-08
2.86559e-08
5.36253e-09
2.30756e-08
2.52694e-08
4.97865e-08
5.58136e-09
3.57073e-08
3.5494e-08
7.85789e-08
5.92939e-09
4.50547e-08
4.91233e-08
1.0908e-07
6.30291e-09
5.98056e-08
6.10389e-08
1.7001e-07
6.86411e-09
7.63219e-08
8.29847e-08
2.1917e-07
7.4955e-09
9.60604e-08
9.72548e-08
3.07203e-07
8.54551e-09
1.21282e-07
1.20717e-07
3.60053e-07
9.54064e-09
1.43836e-07
1.54346e-07
4.64623e-07
1.12274e-08
1.77772e-07
1.74274e-07
5.21771e-07
1.28821e-08
2.25045e-07
2.10436e-07
6.11032e-07
1.57263e-08
2.39209e-07
2.39777e-07
6.45623e-07
1.82796e-08
2.81032e-07
2.89889e-07
7.28341e-07
2.26989e-08
3.2528e-07
3.22781e-07
7.72107e-07
2.65775e-08
3.67846e-07
3.70658e-07
8.1382e-07
3.301e-08
4.14264e-07
4.13993e-07
8.60027e-07
3.92109e-08
4.56207e-07
4.55971e-07
8.91904e-07
4.83289e-08
5.24088e-07
5.1404e-07
9.36148e-07
5.84013e-08
5.51514e-07
5.63392e-07
9.58846e-07
6.63256e-08
5.99488e-07
5.97341e-07
9.89658e-07
8.4446e-08
6.63428e-07
6.65719e-07
1.03311e-06
9.49767e-08
7.00108e-07
6.99637e-07
1.05218e-06
1.12796e-07
7.48929e-07
7.46218e-07
1.08126e-06
1.28599e-07
7.89519e-07
7.93046e-07
1.10994e-06
1.54541e-07
8.35822e-07
8.31432e-07
1.13633e-06
1.72915e-07
8.74534e-07
8.763e-07
1.1622e-06
2.00009e-07
9.11241e-07
9.05985e-07
1.18616e-06
2.24958e-07
9.44459e-07
9.50194e-07
1.21418e-06
2.53983e-07
9.78286e-07
9.71962e-07
1.23247e-06
2.82037e-07
1.00023e-06
1.0068e-06
1.2564e-06
3.10847e-07
1.03711e-06
1.02917e-06
1.27644e-06
3.38407e-07
1.05257e-06
1.05943e-06
1.29485e-06
3.70638e-07
1.07439e-06
1.07637e-06
1.31198e-06
3.99723e-07
1.09808e-06
1.09866e-06
1.32644e-06
4.26023e-07
1.11308e-06
1.1159e-06
1.34359e-06
4.56058e-07
1.13572e-06
1.13347e-06
1.35342e-06
4.80603e-07
1.14231e-06
1.14081e-06
1.36045e-06
5.04289e-07
1.15794e-06
1.15936e-06
1.37304e-06
5.37618e-07
1.17644e-06
1.177e-06
1.4011e-06
5.42413e-07
1.1556e-06
1.15535e-06
1.37267e-06
5.35065e-07
1.12909e-06
1.12877e-06
1.33247e-06
5.48304e-07
1.14332e-06
1.14305e-06
1.35039e-06
6.05869e-07
1.21045e-06
1.21025e-06
1.43558e-06
6.51295e-07
1.25365e-06
1.25352e-06
1.49318e-06
6.65609e-07
1.26677e-06
1.26671e-06
1.51031e-06
6.51085e-07
1.23656e-06
1.23662e-06
1.47086e-06
6.00535e-07
1.15678e-06
1.15685e-06
1.36618e-06
5.59369e-07
1.09628e-06
1.09634e-06
1.28647e-06
5.50908e-07
1.08299e-06
1.08304e-06
1.27522e-06
5.83025e-07
1.11199e-06
1.11204e-06
1.31879e-06
6.2583e-07
1.1418e-06
1.14185e-06
1.36313e-06
6.47271e-07
1.15994e-06
1.16001e-06
1.39307e-06
6.54668e-07
1.16829e-06
1.16836e-06
1.40953e-06
6.56697e-07
1.17155e-06
1.17162e-06
1.41729e-06
6.57155e-07
1.17262e-06
1.1727e-06
1.42043e-06
6.5707e-07
1.17276e-06
1.17283e-06
1.42139e-06
6.56871e-07
1.17267e-06
1.17275e-06
1.42153e-06
6.56887e-07
1.17276e-06
1.17284e-06
1.42162e-06
6.56882e-07
1.17277e-06
1.17285e-06
1.42177e-06
6.56839e-07
1.17269e-06
1.17277e-06
1.42147e-06
6.56866e-07
1.17277e-06
1.17285e-06
1.42177e-06
6.56845e-07
1.17272e-06
1.17279e-06
1.42159e-06
6.56848e-07
1.17274e-06
1.17281e-06
1.42162e-06
6.56847e-07
1.17274e-06
1.17281e-06
1.42172e-06
6.56845e-07
1.17273e-06
1.17281e-06
1.42156e-06
6.56845e-07
1.17275e-06
1.17282e-06
1.42174e-06
6.56844e-07
1.17274e-06
1.17282e-06
1.42155e-06
6.56847e-07
1.17275e-06
1.17283e-06
1.4217e-06
6.56851e-07
1.17277e-06
1.17284e-06
1.42161e-06
6.56858e-07
1.17279e-06
1.17287e-06
1.42163e-06
6.56857e-07
1.17283e-06
1.1729e-06
1.42169e-06
6.56604e-07
1.17254e-06
1.1726e-06
1.42126e-06
6.37812e-07
1.1157e-06
1.11569e-06
1.37946e-06
5.14446e-09
4.3997e-09
4.19786e-09
4.78866e-09
4.31217e-09
4.28285e-09
4.35389e-09
4.35436e-09
4.40365e-09
4.29584e-09
4.21263e-09
3.80245e-09
5.04053e-09
3.78735e-09
4.35377e-09
5.13778e-09
5.1192e-09
4.67086e-09
4.75196e-09
4.52901e-09
4.4365e-09
4.25101e-09
4.76212e-09
4.37654e-09
4.65288e-09
4.75261e-09
4.35209e-09
4.43033e-09
7.26666e-09
4.55638e-09
4.95866e-09
5.015e-09
4.55019e-09
4.71369e-09
4.12233e-09
4.40853e-09
4.66127e-09
4.63671e-09
4.22477e-09
4.32923e-09
4.15796e-09
4.0336e-09
3.89777e-09
4.34477e-09
3.995e-09
4.25138e-09
4.32269e-09
3.97142e-09
4.02442e-09
4.41116e-09
4.12618e-09
3.43219e-09
4.51594e-09
4.11893e-09
4.30344e-09
3.99173e-09
4.01255e-09
4.14831e-09
4.19509e-09
3.84247e-09
3.94322e-09
3.81666e-09
3.69372e-09
3.58863e-09
3.96743e-09
3.66336e-09
3.88449e-09
3.93219e-09
3.64255e-09
3.67714e-09
3.25906e-09
3.75723e-09
2.94387e-09
4.0758e-09
3.76761e-09
3.92256e-09
3.91848e-09
3.67063e-09
3.77285e-09
3.81694e-09
3.51391e-09
3.61665e-09
3.51748e-09
3.40037e-09
3.318e-09
3.63919e-09
3.37243e-09
3.56721e-09
3.59832e-09
3.35601e-09
3.37964e-09
2.87708e-09
3.43988e-09
2.73601e-09
3.72111e-09
3.49119e-09
3.59183e-09
3.91047e-09
3.37124e-09
3.46306e-09
3.49209e-09
3.23267e-09
3.33403e-09
3.25671e-09
3.15069e-09
3.08528e-09
3.35172e-09
3.12221e-09
3.29168e-09
3.31234e-09
3.11412e-09
3.1288e-09
2.70153e-09
3.1761e-09
2.61821e-09
3.45104e-09
3.2711e-09
3.30317e-09
3.96741e-09
3.11869e-09
3.17817e-09
3.21462e-09
2.99077e-09
3.09501e-09
3.03335e-09
2.94267e-09
2.8899e-09
3.10539e-09
2.90763e-09
3.05934e-09
3.07404e-09
2.9133e-09
2.92529e-09
2.59372e-09
2.95226e-09
2.52365e-09
3.25545e-09
3.09199e-09
3.06416e-09
3.99801e-09
2.91587e-09
2.94322e-09
2.97639e-09
2.78815e-09
2.89706e-09
2.8475e-09
2.77818e-09
2.7339e-09
2.89426e-09
2.72273e-09
2.86895e-09
2.88213e-09
2.75306e-09
2.76681e-09
2.50259e-09
2.77098e-09
2.44847e-09
3.07958e-09
2.91481e-09
2.87188e-09
3.95413e-09
2.7542e-09
2.74914e-09
2.77804e-09
2.62802e-09
2.74363e-09
2.70135e-09
2.658e-09
2.62109e-09
2.71294e-09
2.5699e-09
2.7195e-09
2.73424e-09
2.63973e-09
2.65011e-09
2.43358e-09
2.64009e-09
2.40253e-09
2.90124e-09
2.74969e-09
2.72032e-09
3.78713e-09
2.63212e-09
2.59508e-09
2.62195e-09
2.50358e-09
2.63421e-09
2.59947e-09
2.58084e-09
2.54842e-09
2.56446e-09
2.45316e-09
2.61489e-09
2.62718e-09
2.55999e-09
2.57318e-09
2.39519e-09
2.55264e-09
2.39009e-09
2.74302e-09
2.64336e-09
2.60792e-09
3.55811e-09
2.55128e-09
2.47812e-09
2.5023e-09
2.41627e-09
2.56668e-09
2.537e-09
2.54135e-09
2.51515e-09
2.45226e-09
2.37019e-09
2.54869e-09
2.5587e-09
2.53201e-09
2.53362e-09
2.39175e-09
2.50496e-09
2.40829e-09
2.64041e-09
2.54776e-09
2.53698e-09
3.33032e-09
2.5099e-09
2.39944e-09
2.41933e-09
2.36431e-09
2.53646e-09
2.51422e-09
2.54209e-09
2.52426e-09
2.37314e-09
2.32275e-09
2.52741e-09
2.5298e-09
2.52958e-09
2.5358e-09
2.41751e-09
2.50072e-09
2.4622e-09
2.54794e-09
2.45538e-09
2.50555e-09
3.09908e-09
2.51136e-09
2.35238e-09
2.37333e-09
2.34847e-09
2.54803e-09
2.53322e-09
2.58792e-09
2.57827e-09
2.33239e-09
2.3152e-09
2.53534e-09
2.54427e-09
2.57352e-09
2.58068e-09
2.48351e-09
2.54524e-09
2.55347e-09
2.45891e-09
2.40663e-09
2.5194e-09
2.96793e-09
2.56176e-09
2.34775e-09
2.36695e-09
2.38095e-09
2.6073e-09
2.59869e-09
2.69254e-09
2.68775e-09
2.33517e-09
2.35676e-09
2.59353e-09
2.598e-09
2.67506e-09
2.68541e-09
2.58039e-09
2.64834e-09
2.68632e-09
2.42067e-09
2.41638e-09
2.58045e-09
2.95839e-09
2.66384e-09
2.39244e-09
2.41351e-09
2.48072e-09
2.7276e-09
2.72546e-09
2.87006e-09
2.87331e-09
2.3898e-09
2.46733e-09
2.71082e-09
2.72272e-09
2.8481e-09
2.86638e-09
2.73133e-09
2.82849e-09
2.89438e-09
2.4463e-09
2.5058e-09
2.70194e-09
3.02655e-09
2.84447e-09
2.50465e-09
2.53777e-09
2.68058e-09
2.93062e-09
2.93442e-09
3.15726e-09
3.1569e-09
2.52271e-09
2.68081e-09
2.90695e-09
2.9277e-09
3.13306e-09
3.15209e-09
2.95872e-09
3.11296e-09
3.19936e-09
2.55887e-09
2.68618e-09
2.90702e-09
3.16862e-09
3.13458e-09
2.71892e-09
2.77e-09
3.07686e-09
3.24614e-09
3.25498e-09
3.61411e-09
3.60583e-09
2.78057e-09
3.05205e-09
3.22422e-09
3.24434e-09
3.58252e-09
3.603e-09
3.30007e-09
3.55849e-09
3.66891e-09
2.77777e-09
3.05317e-09
3.22578e-09
3.52291e-09
3.57841e-09
3.10309e-09
3.25194e-09
3.69362e-09
3.76854e-09
3.76371e-09
4.27631e-09
4.2963e-09
3.22097e-09
3.74119e-09
3.73596e-09
3.74872e-09
4.24874e-09
4.30532e-09
3.80616e-09
4.25526e-09
4.37079e-09
3.19584e-09
3.70772e-09
3.71609e-09
4.11717e-09
4.2602e-09
3.77751e-09
3.967e-09
4.84697e-09
4.51337e-09
4.52241e-09
5.30461e-09
5.36644e-09
3.99266e-09
4.93838e-09
4.49457e-09
4.52289e-09
5.26534e-09
5.34653e-09
4.58646e-09
5.29397e-09
5.42778e-09
3.95019e-09
4.82694e-09
4.4733e-09
5.03373e-09
5.3144e-09
4.96603e-09
5.2628e-09
7.17137e-09
5.64904e-09
5.71504e-09
6.95633e-09
6.9387e-09
5.423e-09
6.9966e-09
5.62172e-09
5.65543e-09
6.95003e-09
6.9868e-09
5.75461e-09
6.8699e-09
6.98941e-09
5.22844e-09
6.97457e-09
5.6249e-09
6.57782e-09
6.833e-09
6.97322e-09
7.78475e-09
1.04312e-08
7.36927e-09
7.48381e-09
9.16112e-09
9.04345e-09
7.83965e-09
1.02351e-08
7.37692e-09
7.49844e-09
9.15571e-09
9.1172e-09
7.46118e-09
8.9575e-09
9.31607e-09
7.79769e-09
9.95236e-09
7.29698e-09
8.60006e-09
9.1747e-09
1.07408e-08
1.18999e-08
1.67172e-08
9.98888e-09
9.93557e-09
1.23798e-08
1.25286e-08
1.13619e-08
1.75224e-08
9.95939e-09
9.95288e-09
1.23207e-08
1.25191e-08
9.99775e-09
1.24214e-08
1.26389e-08
1.12428e-08
1.68504e-08
9.82261e-09
1.2035e-08
1.24232e-08
1.666e-08
1.82061e-08
2.79908e-08
1.33914e-08
1.32086e-08
1.70468e-08
1.8198e-08
1.86772e-08
3.18359e-08
1.32925e-08
1.34511e-08
1.69116e-08
1.70298e-08
1.37085e-08
1.80061e-08
1.69014e-08
1.84185e-08
2.66602e-08
1.35268e-08
1.68044e-08
1.65478e-08
2.59575e-08
3.02863e-08
4.49228e-08
1.82399e-08
1.97524e-08
2.35692e-08
2.18276e-08
3.71428e-08
3.76812e-08
1.79331e-08
1.84674e-08
2.3374e-08
2.33965e-08
1.8529e-08
2.1641e-08
2.37966e-08
2.99861e-08
4.36167e-08
1.81886e-08
2.3424e-08
2.33569e-08
4.67613e-08
5.13078e-08
6.7139e-08
2.56507e-08
2.32975e-08
3.14213e-08
3.36579e-08
3.90446e-08
8.2941e-08
2.51256e-08
2.50006e-08
3.17816e-08
3.19979e-08
2.50637e-08
3.33359e-08
3.23906e-08
4.77112e-08
6.85606e-08
2.46583e-08
3.31243e-08
3.17207e-08
6.80879e-08
7.19669e-08
1.00983e-07
3.33472e-08
3.58742e-08
4.20305e-08
4.21746e-08
9.16519e-08
1.03625e-07
3.37954e-08
3.49165e-08
4.09403e-08
4.25384e-08
3.51541e-08
4.16242e-08
4.22603e-08
7.51518e-08
1.10499e-07
3.44569e-08
4.54285e-08
4.18364e-08
1.02239e-07
1.11524e-07
1.63121e-07
4.65666e-08
4.58616e-08
5.67867e-08
5.65007e-08
1.10265e-07
1.60375e-07
4.56719e-08
4.60539e-08
5.67104e-08
5.55948e-08
4.59285e-08
5.68467e-08
5.72444e-08
1.17302e-07
1.53049e-07
4.52033e-08
5.73451e-08
5.67657e-08
1.60571e-07
1.70774e-07
2.06246e-07
5.92105e-08
5.99377e-08
7.33481e-08
7.11763e-08
1.69225e-07
2.08248e-07
5.90631e-08
5.79366e-08
7.31307e-08
7.37213e-08
6.08333e-08
7.05815e-08
7.06979e-08
1.63071e-07
2.11726e-07
6.02055e-08
7.79219e-08
7.0192e-08
2.07886e-07
2.26524e-07
2.8167e-07
7.93233e-08
7.60306e-08
8.92886e-08
9.24871e-08
2.2215e-07
2.87363e-07
7.84751e-08
8.05559e-08
8.83301e-08
9.17701e-08
7.55383e-08
9.24941e-08
9.46138e-08
2.36568e-07
2.93462e-07
7.50604e-08
9.40252e-08
9.33513e-08
2.88516e-07
2.89259e-07
3.64021e-07
9.30121e-08
9.672e-08
1.16958e-07
1.13603e-07
3.01452e-07
3.51036e-07
9.24582e-08
9.421e-08
1.15543e-07
1.09977e-07
9.88978e-08
1.12159e-07
1.11617e-07
2.98202e-07
3.29946e-07
9.76937e-08
1.12638e-07
1.09927e-07
3.46969e-07
3.9124e-07
4.42196e-07
1.2481e-07
1.2274e-07
1.38055e-07
1.41527e-07
3.71866e-07
4.42688e-07
1.23727e-07
1.18748e-07
1.39203e-07
1.42669e-07
1.19537e-07
1.4066e-07
1.43193e-07
3.56318e-07
4.60726e-07
1.1765e-07
1.47276e-07
1.43584e-07
4.49307e-07
4.52082e-07
5.07678e-07
1.42795e-07
1.44306e-07
1.69507e-07
1.63269e-07
4.51339e-07
4.88814e-07
1.43865e-07
1.48875e-07
1.68746e-07
1.65687e-07
1.47621e-07
1.63781e-07
1.66583e-07
4.73199e-07
5.07763e-07
1.48604e-07
1.68988e-07
1.64889e-07
5.04325e-07
5.28936e-07
5.82228e-07
1.79279e-07
1.7742e-07
1.98109e-07
2.21406e-07
5.13206e-07
6.34709e-07
1.77726e-07
1.72901e-07
1.95886e-07
2.02028e-07
1.78236e-07
2.19029e-07
2.07973e-07
5.22603e-07
5.83159e-07
1.74966e-07
2.00382e-07
2.06505e-07
6.00876e-07
5.94354e-07
6.51644e-07
2.05212e-07
2.27658e-07
2.39222e-07
2.36164e-07
6.44492e-07
6.44916e-07
2.03583e-07
2.11183e-07
2.39354e-07
2.31544e-07
2.12698e-07
2.34875e-07
2.26458e-07
5.9943e-07
6.46187e-07
2.12291e-07
2.32514e-07
2.26982e-07
6.33337e-07
6.69212e-07
7.0347e-07
2.48542e-07
2.39938e-07
2.71016e-07
2.65681e-07
6.51434e-07
6.99926e-07
2.48977e-07
2.39648e-07
2.69076e-07
2.7831e-07
2.3452e-07
2.66157e-07
2.76706e-07
6.59337e-07
7.093e-07
2.35265e-07
2.76427e-07
2.77197e-07
7.10257e-07
7.14675e-07
7.62185e-07
2.81041e-07
2.80805e-07
3.18271e-07
3.20202e-07
7.17623e-07
7.63093e-07
2.77902e-07
2.90908e-07
3.14644e-07
3.148e-07
2.91488e-07
3.17869e-07
3.17877e-07
7.24749e-07
7.60367e-07
2.90944e-07
3.15579e-07
3.15904e-07
7.63384e-07
7.74515e-07
8.03086e-07
3.29539e-07
3.27637e-07
3.53486e-07
3.52639e-07
7.73898e-07
8.04149e-07
3.27859e-07
3.22229e-07
3.57305e-07
3.59528e-07
3.25193e-07
3.53355e-07
3.58038e-07
7.70312e-07
8.05099e-07
3.23759e-07
3.58581e-07
3.56863e-07
8.00429e-07
8.14343e-07
8.47745e-07
3.62635e-07
3.66309e-07
4.04859e-07
4.07448e-07
8.16408e-07
8.43948e-07
3.65372e-07
3.71428e-07
4.0172e-07
4.02459e-07
3.67961e-07
4.06254e-07
4.01599e-07
8.19118e-07
8.50128e-07
3.66379e-07
4.01065e-07
4.01724e-07
8.50705e-07
8.57002e-07
8.80744e-07
4.18876e-07
4.16178e-07
4.47948e-07
4.42247e-07
8.52462e-07
8.81876e-07
4.16016e-07
4.1556e-07
4.4774e-07
4.48635e-07
4.15923e-07
4.40907e-07
4.51542e-07
8.58373e-07
8.78901e-07
4.16528e-07
4.47447e-07
4.52431e-07
8.82214e-07
8.91379e-07
9.27017e-07
4.56812e-07
4.56663e-07
4.99256e-07
5.11736e-07
8.96741e-07
9.32808e-07
4.56665e-07
4.56964e-07
4.97651e-07
4.95818e-07
4.60294e-07
5.11602e-07
4.95995e-07
8.88727e-07
9.27882e-07
4.61104e-07
4.95518e-07
4.94883e-07
9.25689e-07
9.36431e-07
9.50806e-07
5.1669e-07
5.24839e-07
5.51759e-07
5.46972e-07
9.38974e-07
9.44375e-07
5.14991e-07
5.14251e-07
5.51235e-07
5.55881e-07
5.12967e-07
5.45305e-07
5.53731e-07
9.39391e-07
9.54893e-07
5.11355e-07
5.55534e-07
5.52888e-07
9.53058e-07
9.57169e-07
9.81993e-07
5.58933e-07
5.53264e-07
5.86557e-07
5.83891e-07
9.51114e-07
9.82624e-07
5.58505e-07
5.63783e-07
5.84965e-07
5.86571e-07
5.61833e-07
5.8222e-07
5.85816e-07
9.59831e-07
9.78221e-07
5.61215e-07
5.85865e-07
5.85183e-07
9.78709e-07
9.93499e-07
1.02453e-06
6.01704e-07
6.00571e-07
6.52939e-07
6.50645e-07
9.95098e-07
1.02502e-06
5.99736e-07
5.98268e-07
6.52842e-07
6.51018e-07
5.98239e-07
6.5185e-07
6.49775e-07
9.89338e-07
1.02539e-06
5.97594e-07
6.50136e-07
6.50236e-07
1.02486e-06
1.03159e-06
1.0445e-06
6.64759e-07
6.63315e-07
6.88654e-07
6.92778e-07
1.03155e-06
1.0452e-06
6.64689e-07
6.65889e-07
6.88638e-07
6.9151e-07
6.64023e-07
6.91101e-07
6.92914e-07
1.03386e-06
1.04606e-06
6.64816e-07
6.92088e-07
6.91947e-07
1.04618e-06
1.05129e-06
1.07526e-06
6.98071e-07
7.00374e-07
7.37578e-07
7.33106e-07
1.05203e-06
1.07298e-06
6.98798e-07
7.00135e-07
7.37746e-07
7.36317e-07
7.01627e-07
7.35082e-07
7.34003e-07
1.05171e-06
1.07308e-06
7.00183e-07
7.33776e-07
7.34259e-07
1.0729e-06
1.08313e-06
1.0999e-06
7.4988e-07
7.47989e-07
7.77508e-07
7.81697e-07
1.08134e-06
1.10342e-06
7.47972e-07
7.4759e-07
7.75563e-07
7.80113e-07
7.46245e-07
7.81478e-07
7.81489e-07
1.08179e-06
1.10251e-06
7.46931e-07
7.81496e-07
7.80601e-07
1.10307e-06
1.107e-06
1.13369e-06
7.88113e-07
7.89854e-07
8.28311e-07
8.25064e-07
1.1095e-06
1.12856e-06
7.88005e-07
7.92531e-07
8.29086e-07
8.25015e-07
7.92101e-07
8.22437e-07
8.22907e-07
1.10942e-06
1.12997e-06
7.90902e-07
8.22288e-07
8.23422e-07
1.1291e-06
1.1411e-06
1.1539e-06
8.38978e-07
8.38128e-07
8.6029e-07
8.63662e-07
1.13741e-06
1.15837e-06
8.39262e-07
8.33595e-07
8.60518e-07
8.64483e-07
8.33519e-07
8.6706e-07
8.6442e-07
1.1366e-06
1.15544e-06
8.34398e-07
8.65959e-07
8.63836e-07
1.15605e-06
1.15929e-06
1.18301e-06
8.68951e-07
8.70535e-07
9.04451e-07
9.02507e-07
1.16351e-06
1.18011e-06
8.69023e-07
8.75175e-07
9.03294e-07
8.99257e-07
8.73229e-07
9.01151e-07
8.99329e-07
1.16278e-06
1.17991e-06
8.72211e-07
8.97427e-07
8.98949e-07
1.17926e-06
1.1908e-06
1.20565e-06
9.14127e-07
9.13654e-07
9.34358e-07
9.34512e-07
1.18769e-06
1.20509e-06
9.13793e-07
9.07536e-07
9.37073e-07
9.3967e-07
9.09308e-07
9.36689e-07
9.38743e-07
1.18548e-06
1.20809e-06
9.09285e-07
9.40981e-07
9.39061e-07
1.20787e-06
1.21076e-06
1.22979e-06
9.42549e-07
9.41092e-07
9.71542e-07
9.71278e-07
1.21028e-06
1.2291e-06
9.44663e-07
9.48725e-07
9.70597e-07
9.65907e-07
9.46859e-07
9.70461e-07
9.67577e-07
1.2154e-06
1.22696e-06
9.47158e-07
9.66187e-07
9.67641e-07
1.22734e-06
1.23632e-06
1.24993e-06
9.79289e-07
9.80718e-07
9.96843e-07
9.96652e-07
1.2359e-06
1.24741e-06
9.79036e-07
9.72729e-07
1.00023e-06
1.00021e-06
9.74778e-07
9.94137e-07
9.9783e-07
1.23117e-06
1.25028e-06
9.7485e-07
9.98774e-07
9.98255e-07
1.25015e-06
1.25472e-06
1.26954e-06
1.0036e-06
1.00127e-06
1.02681e-06
1.02657e-06
1.25138e-06
1.27042e-06
1.00642e-06
1.00764e-06
1.02393e-06
1.02325e-06
1.0057e-06
1.02856e-06
1.0278e-06
1.25711e-06
1.26827e-06
1.00593e-06
1.02322e-06
1.02617e-06
1.27149e-06
1.27478e-06
1.28582e-06
1.03299e-06
1.03635e-06
1.04792e-06
1.05284e-06
1.27829e-06
1.29017e-06
1.02933e-06
1.02922e-06
1.04799e-06
1.05264e-06
1.03362e-06
1.04979e-06
1.05086e-06
1.27257e-06
1.29094e-06
1.03159e-06
1.0522e-06
1.0507e-06
1.28931e-06
1.29079e-06
1.3074e-06
1.05388e-06
1.05647e-06
1.0737e-06
1.07213e-06
1.29307e-06
1.30207e-06
1.05557e-06
1.05994e-06
1.07533e-06
1.07422e-06
1.05801e-06
1.06768e-06
1.07426e-06
1.29736e-06
1.30763e-06
1.05871e-06
1.07329e-06
1.07572e-06
1.30852e-06
1.31263e-06
1.32294e-06
1.07934e-06
1.07785e-06
1.09487e-06
1.09181e-06
1.30777e-06
1.3212e-06
1.07984e-06
1.07761e-06
1.09261e-06
1.09268e-06
1.07745e-06
1.09302e-06
1.09307e-06
1.31068e-06
1.32009e-06
1.07861e-06
1.09168e-06
1.09246e-06
1.32032e-06
1.32711e-06
1.33539e-06
1.09981e-06
1.09582e-06
1.11123e-06
1.10842e-06
1.32528e-06
1.33357e-06
1.09699e-06
1.0988e-06
1.10742e-06
1.11127e-06
1.10087e-06
1.10907e-06
1.1151e-06
1.32589e-06
1.33822e-06
1.10005e-06
1.11298e-06
1.11516e-06
1.34098e-06
1.33908e-06
1.35126e-06
1.11518e-06
1.11356e-06
1.13101e-06
1.1303e-06
1.33798e-06
1.35275e-06
1.11149e-06
1.11445e-06
1.12937e-06
1.12867e-06
1.11709e-06
1.13051e-06
1.12829e-06
1.34152e-06
1.35017e-06
1.1173e-06
1.12885e-06
1.12848e-06
1.34854e-06
1.35597e-06
1.35767e-06
1.13528e-06
1.13425e-06
1.13958e-06
1.13818e-06
1.35755e-06
1.35898e-06
1.13453e-06
1.13325e-06
1.14035e-06
1.13934e-06
1.13359e-06
1.14175e-06
1.1407e-06
1.35474e-06
1.35783e-06
1.13376e-06
1.13988e-06
1.14095e-06
1.35908e-06
1.359e-06
1.36927e-06
1.14025e-06
1.13894e-06
1.15099e-06
1.1499e-06
1.36025e-06
1.36858e-06
1.14113e-06
1.1405e-06
1.15191e-06
1.15286e-06
1.14117e-06
1.15098e-06
1.14901e-06
1.35943e-06
1.37038e-06
1.14139e-06
1.15165e-06
1.14873e-06
1.36529e-06
1.37829e-06
1.39954e-06
1.15877e-06
1.15777e-06
1.1757e-06
1.17638e-06
1.37717e-06
1.39993e-06
1.1596e-06
1.16097e-06
1.1761e-06
1.17725e-06
1.15601e-06
1.17583e-06
1.17536e-06
1.37946e-06
1.40068e-06
1.15557e-06
1.17659e-06
1.17512e-06
1.39841e-06
1.40139e-06
1.37212e-06
1.17605e-06
1.17697e-06
1.1627e-06
1.16426e-06
1.40201e-06
1.37333e-06
1.17638e-06
1.17747e-06
1.16274e-06
1.16335e-06
1.17628e-06
1.16366e-06
1.16429e-06
1.40252e-06
1.37235e-06
1.17614e-06
1.16354e-06
1.16433e-06
1.37486e-06
1.36994e-06
1.33207e-06
1.15471e-06
1.15628e-06
1.1324e-06
1.13363e-06
1.37113e-06
1.33245e-06
1.15469e-06
1.15513e-06
1.13226e-06
1.13249e-06
1.15622e-06
1.13271e-06
1.13252e-06
1.37003e-06
1.3313e-06
1.15625e-06
1.13237e-06
1.13246e-06
1.33232e-06
1.33237e-06
1.34117e-06
1.12895e-06
1.13003e-06
1.13264e-06
1.13332e-06
1.33271e-06
1.34103e-06
1.12881e-06
1.12906e-06
1.13259e-06
1.13295e-06
1.12862e-06
1.13249e-06
1.13155e-06
1.33158e-06
1.34067e-06
1.12851e-06
1.1322e-06
1.13128e-06
1.33937e-06
1.35235e-06
1.41985e-06
1.1435e-06
1.14399e-06
1.19362e-06
1.19405e-06
1.35218e-06
1.41996e-06
1.14354e-06
1.14396e-06
1.19383e-06
1.19427e-06
1.14226e-06
1.19393e-06
1.19343e-06
1.35197e-06
1.42009e-06
1.14189e-06
1.1937e-06
1.19301e-06
1.41909e-06
1.43605e-06
1.48416e-06
1.21004e-06
1.21046e-06
1.24568e-06
1.24602e-06
1.43623e-06
1.48444e-06
1.21024e-06
1.21065e-06
1.24578e-06
1.2461e-06
1.21021e-06
1.24611e-06
1.24625e-06
1.43637e-06
1.48456e-06
1.20983e-06
1.24596e-06
1.24599e-06
1.48453e-06
1.49272e-06
1.50738e-06
1.25327e-06
1.25357e-06
1.26593e-06
1.26607e-06
1.49299e-06
1.50753e-06
1.25333e-06
1.2536e-06
1.26587e-06
1.266e-06
1.25386e-06
1.26612e-06
1.26643e-06
1.49309e-06
1.50756e-06
1.25364e-06
1.26604e-06
1.26631e-06
1.50807e-06
1.50962e-06
1.47561e-06
1.26663e-06
1.26673e-06
1.25071e-06
1.25063e-06
1.50973e-06
1.47548e-06
1.26655e-06
1.26665e-06
1.25052e-06
1.25049e-06
1.26709e-06
1.2506e-06
1.25089e-06
1.50975e-06
1.47549e-06
1.26698e-06
1.25064e-06
1.25087e-06
1.47607e-06
1.47044e-06
1.37337e-06
1.23669e-06
1.23659e-06
1.17741e-06
1.17729e-06
1.4703e-06
1.37318e-06
1.23649e-06
1.23646e-06
1.17719e-06
1.17724e-06
1.23681e-06
1.17722e-06
1.17737e-06
1.47031e-06
1.37327e-06
1.23679e-06
1.17731e-06
1.17735e-06
1.37349e-06
1.36608e-06
1.28863e-06
1.15694e-06
1.15684e-06
1.10723e-06
1.10717e-06
1.36589e-06
1.2885e-06
1.15674e-06
1.15681e-06
1.10705e-06
1.10721e-06
1.15689e-06
1.10708e-06
1.10719e-06
1.36598e-06
1.28863e-06
1.15687e-06
1.10715e-06
1.10714e-06
1.28865e-06
1.28644e-06
1.27071e-06
1.09642e-06
1.09637e-06
1.08286e-06
1.08285e-06
1.28632e-06
1.27064e-06
1.09624e-06
1.09642e-06
1.08271e-06
1.08291e-06
1.09639e-06
1.08274e-06
1.08287e-06
1.28646e-06
1.27078e-06
1.09633e-06
1.08279e-06
1.08278e-06
1.27075e-06
1.27518e-06
1.30835e-06
1.0831e-06
1.0831e-06
1.10301e-06
1.10305e-06
1.27511e-06
1.3083e-06
1.08296e-06
1.08316e-06
1.10289e-06
1.10308e-06
1.08312e-06
1.10292e-06
1.10307e-06
1.27524e-06
1.30841e-06
1.08303e-06
1.10296e-06
1.10295e-06
1.30841e-06
1.31874e-06
1.35437e-06
1.11209e-06
1.11212e-06
1.13546e-06
1.1355e-06
1.31869e-06
1.35431e-06
1.11198e-06
1.11215e-06
1.13536e-06
1.13552e-06
1.11215e-06
1.13537e-06
1.13552e-06
1.31879e-06
1.3544e-06
1.11203e-06
1.13543e-06
1.13542e-06
1.35443e-06
1.36307e-06
1.3869e-06
1.14189e-06
1.14193e-06
1.15657e-06
1.15662e-06
1.36302e-06
1.38684e-06
1.14179e-06
1.14194e-06
1.15648e-06
1.15663e-06
1.14195e-06
1.15649e-06
1.15665e-06
1.36311e-06
1.38693e-06
1.14185e-06
1.15655e-06
1.15655e-06
1.38697e-06
1.39301e-06
1.4055e-06
1.16003e-06
1.16007e-06
1.16692e-06
1.16696e-06
1.39296e-06
1.40544e-06
1.15994e-06
1.16009e-06
1.16684e-06
1.16699e-06
1.16011e-06
1.16684e-06
1.167e-06
1.39304e-06
1.40553e-06
1.16001e-06
1.16691e-06
1.16692e-06
1.40557e-06
1.40946e-06
1.41449e-06
1.16837e-06
1.16841e-06
1.17109e-06
1.17112e-06
1.40941e-06
1.41444e-06
1.16828e-06
1.16844e-06
1.17099e-06
1.17115e-06
1.16845e-06
1.171e-06
1.17117e-06
1.40949e-06
1.41453e-06
1.16837e-06
1.17107e-06
1.17108e-06
1.41457e-06
1.41722e-06
1.41824e-06
1.17163e-06
1.17167e-06
1.17256e-06
1.1726e-06
1.41717e-06
1.41819e-06
1.17154e-06
1.1717e-06
1.17247e-06
1.17263e-06
1.17171e-06
1.17247e-06
1.17264e-06
1.41726e-06
1.41828e-06
1.17163e-06
1.17255e-06
1.17256e-06
1.41832e-06
1.42035e-06
1.41946e-06
1.17271e-06
1.17274e-06
1.17285e-06
1.17288e-06
1.4203e-06
1.4194e-06
1.17262e-06
1.17278e-06
1.17276e-06
1.17291e-06
1.17279e-06
1.17276e-06
1.17293e-06
1.42039e-06
1.41949e-06
1.17271e-06
1.17283e-06
1.17284e-06
1.41953e-06
1.42131e-06
1.41965e-06
1.17285e-06
1.17288e-06
1.17277e-06
1.17281e-06
1.42126e-06
1.4196e-06
1.17276e-06
1.17291e-06
1.17268e-06
1.17284e-06
1.17293e-06
1.17269e-06
1.17286e-06
1.42134e-06
1.41968e-06
1.17284e-06
1.17276e-06
1.17277e-06
1.41973e-06
1.42145e-06
1.41964e-06
1.17276e-06
1.1728e-06
1.17279e-06
1.17283e-06
1.4214e-06
1.41959e-06
1.17267e-06
1.17283e-06
1.1727e-06
1.17286e-06
1.17284e-06
1.1727e-06
1.17287e-06
1.42149e-06
1.41967e-06
1.17275e-06
1.17278e-06
1.17278e-06
1.41971e-06
1.42155e-06
1.41989e-06
1.17285e-06
1.17289e-06
1.17288e-06
1.17292e-06
1.42151e-06
1.41983e-06
1.17276e-06
1.17292e-06
1.17279e-06
1.17295e-06
1.17293e-06
1.17279e-06
1.17297e-06
1.42158e-06
1.41992e-06
1.17284e-06
1.17287e-06
1.17288e-06
1.41996e-06
1.42169e-06
1.41956e-06
1.17286e-06
1.1729e-06
1.17277e-06
1.17281e-06
1.42164e-06
1.4195e-06
1.17277e-06
1.17293e-06
1.17268e-06
1.17284e-06
1.17295e-06
1.17269e-06
1.17286e-06
1.42172e-06
1.4196e-06
1.17286e-06
1.17276e-06
1.17277e-06
1.41964e-06
1.42139e-06
1.41982e-06
1.17278e-06
1.17282e-06
1.17284e-06
1.17288e-06
1.42135e-06
1.41977e-06
1.17269e-06
1.17285e-06
1.17275e-06
1.17291e-06
1.17287e-06
1.17275e-06
1.17292e-06
1.42143e-06
1.41986e-06
1.17278e-06
1.17283e-06
1.17283e-06
1.4199e-06
1.42169e-06
1.41973e-06
1.17286e-06
1.17289e-06
1.17281e-06
1.17284e-06
1.42165e-06
1.41967e-06
1.17277e-06
1.17292e-06
1.17272e-06
1.17287e-06
1.17294e-06
1.17272e-06
1.17289e-06
1.42173e-06
1.41976e-06
1.17285e-06
1.17279e-06
1.1728e-06
1.4198e-06
1.42152e-06
1.41966e-06
1.1728e-06
1.17284e-06
1.1728e-06
1.17284e-06
1.42146e-06
1.41962e-06
1.17272e-06
1.17287e-06
1.17271e-06
1.17287e-06
1.17289e-06
1.17271e-06
1.17289e-06
1.42155e-06
1.41971e-06
1.1728e-06
1.17279e-06
1.1728e-06
1.41975e-06
1.42154e-06
1.41984e-06
1.17282e-06
1.17286e-06
1.17281e-06
1.17285e-06
1.4215e-06
1.41978e-06
1.17273e-06
1.17289e-06
1.17272e-06
1.17288e-06
1.17291e-06
1.17273e-06
1.1729e-06
1.42158e-06
1.41987e-06
1.17282e-06
1.1728e-06
1.17281e-06
1.41991e-06
1.42165e-06
1.41962e-06
1.17282e-06
1.17286e-06
1.17279e-06
1.17283e-06
1.4216e-06
1.41957e-06
1.17274e-06
1.17289e-06
1.17271e-06
1.17286e-06
1.17291e-06
1.17271e-06
1.17288e-06
1.42168e-06
1.41967e-06
1.17282e-06
1.17278e-06
1.17279e-06
1.4197e-06
1.42148e-06
1.41984e-06
1.17282e-06
1.17286e-06
1.1728e-06
1.17284e-06
1.42144e-06
1.41979e-06
1.17273e-06
1.17289e-06
1.17271e-06
1.17287e-06
1.17291e-06
1.17271e-06
1.17289e-06
1.42152e-06
1.41988e-06
1.17281e-06
1.17279e-06
1.17279e-06
1.41992e-06
1.42167e-06
1.41961e-06
1.17283e-06
1.17287e-06
1.17278e-06
1.17282e-06
1.42161e-06
1.41957e-06
1.17274e-06
1.1729e-06
1.17269e-06
1.17285e-06
1.17292e-06
1.17269e-06
1.17286e-06
1.42169e-06
1.41965e-06
1.17282e-06
1.17277e-06
1.17277e-06
1.41969e-06
1.42147e-06
1.41983e-06
1.17283e-06
1.17287e-06
1.17278e-06
1.17282e-06
1.42144e-06
1.41976e-06
1.17274e-06
1.1729e-06
1.17269e-06
1.17285e-06
1.17291e-06
1.17269e-06
1.17287e-06
1.42152e-06
1.41986e-06
1.17282e-06
1.17277e-06
1.17277e-06
1.4199e-06
1.42164e-06
1.41965e-06
1.17284e-06
1.17288e-06
1.17276e-06
1.1728e-06
1.42156e-06
1.41962e-06
1.17275e-06
1.17291e-06
1.17267e-06
1.17283e-06
1.17293e-06
1.17267e-06
1.17285e-06
1.42165e-06
1.4197e-06
1.17283e-06
1.17275e-06
1.17275e-06
1.41973e-06
1.42153e-06
1.41977e-06
1.17285e-06
1.17289e-06
1.17275e-06
1.17278e-06
1.42151e-06
1.41969e-06
1.17277e-06
1.17292e-06
1.17266e-06
1.17282e-06
1.17294e-06
1.17266e-06
1.17283e-06
1.42157e-06
1.41979e-06
1.17285e-06
1.17274e-06
1.17274e-06
1.41984e-06
1.42157e-06
1.41973e-06
1.17288e-06
1.17291e-06
1.17273e-06
1.17277e-06
1.42149e-06
1.41972e-06
1.17279e-06
1.17295e-06
1.17265e-06
1.17281e-06
1.17296e-06
1.17265e-06
1.17282e-06
1.42158e-06
1.4198e-06
1.17287e-06
1.17272e-06
1.17272e-06
1.41983e-06
1.42161e-06
1.41946e-06
1.17291e-06
1.17295e-06
1.17234e-06
1.17238e-06
1.42159e-06
1.4194e-06
1.17283e-06
1.17298e-06
1.17225e-06
1.1724e-06
1.173e-06
1.17226e-06
1.17242e-06
1.42166e-06
1.4195e-06
1.1729e-06
1.17232e-06
1.17232e-06
1.41953e-06
1.42118e-06
1.4007e-06
1.17262e-06
1.17266e-06
1.15178e-06
1.15182e-06
1.42115e-06
1.40069e-06
1.17253e-06
1.17269e-06
1.15176e-06
1.15178e-06
1.17271e-06
1.15182e-06
1.15184e-06
1.42122e-06
1.40072e-06
1.1726e-06
1.15181e-06
1.15181e-06
1.40075e-06
1.37942e-06
1.11563e-06
1.11566e-06
1.37942e-06
1.11563e-06
1.11562e-06
6.37845e-07
6.37816e-07
6.37861e-07
1.11569e-06
1.37943e-06
1.11568e-06
1.14792e-08
2.85791e-09
7.14864e-09
7.13846e-09
1.53616e-09
4.46279e-09
1.15867e-08
3.81857e-09
1.54424e-09
3.79628e-09
4.14224e-09
3.09046e-09
5.30391e-09
1.0988e-08
4.08638e-09
7.51598e-09
1.63649e-07
6.0315e-09
2.60114e-07
1.6139e-06
3.1117e-06
7.38539e-09
1.63306e-07
6.09494e-09
2.58815e-07
4.35324e-09
4.3987e-09
4.30716e-09
4.33697e-09
4.33934e-09
4.38858e-09
4.2883e-09
1.53717e-09
8.64375e-08
2.53791e-09
4.79381e-09
1.55044e-09
6.46563e-08
2.50229e-09
1.63883e-06
3.21065e-06
1.55619e-09
3.28961e-09
7.85674e-08
4.18766e-09
1.56429e-09
3.26857e-09
5.76819e-08
2.23164e-07
2.17332e-07
4.91305e-09
1.93167e-07
1.85049e-07
1.67588e-08
4.64395e-07
1.22835e-08
6.81305e-07
6.80606e-06
9.8806e-06
1.58736e-08
4.61173e-07
1.28754e-08
6.79349e-07
4.33335e-09
4.38658e-09
4.27678e-09
4.31298e-09