/*--------------------------------*- C++ -*----------------------------------*\
| =========                 |                                                 |
| \\      /  F ield         | OpenFOAM: The Open Source CFD Toolbox           |
|  \\    /   O peration     | Version:  v1906                                 |
|   \\  /    A nd           | Web:      www.OpenFOAM.com                      |
|    \\/     M anipulation  |                                                 |
\*---------------------------------------------------------------------------*/
FoamFile
{
    version     2.0;
    format      ascii;
    class       volScalarField;
    location    "287.5";
    object      k;
}
// * * * * * * * * * * * * * * * * * * * * * * * * * * * * * * * * * * * * * //

dimensions      [0 2 -2 0 0 0 0];


internalField   nonuniform List<scalar> 
171728
(
6.26314e-07
3.53666e-07
3.05717e-07
3.54805e-07
6.19218e-07
3.33932e-07
2.96663e-07
3.45047e-07
6.23982e-07
3.19477e-07
2.90936e-07
3.22119e-07
6.28891e-07
3.0662e-07
2.86021e-07
3.04147e-07
6.34395e-07
2.94105e-07
2.84921e-07
2.88796e-07
6.4059e-07
2.8241e-07
2.89545e-07
2.75561e-07
6.47174e-07
2.70845e-07
2.92339e-07
2.64156e-07
6.54609e-07
2.60816e-07
3.02366e-07
2.54328e-07
6.62371e-07
2.52589e-07
3.50797e-07
2.45365e-07
6.70876e-07
2.44661e-07
4.07263e-07
2.36299e-07
6.7915e-07
2.3818e-07
4.2293e-07
2.28033e-07
6.88744e-07
2.3393e-07
3.80995e-07
2.21434e-07
6.98299e-07
2.31123e-07
3.24332e-07
2.16483e-07
7.08532e-07
2.30532e-07
2.96241e-07
2.13228e-07
7.18675e-07
2.32451e-07
2.7502e-07
2.13158e-07
7.29365e-07
2.38345e-07
2.49059e-07
2.15864e-07
7.40471e-07
2.4954e-07
2.36159e-07
2.24198e-07
7.50674e-07
2.69324e-07
2.39216e-07
2.43038e-07
7.61944e-07
3.01191e-07
2.58937e-07
2.81844e-07
7.73605e-07
3.56956e-07
3.1178e-07
3.51713e-07
7.85077e-07
4.09404e-07
3.72736e-07
4.99006e-07
7.96803e-07
5.43438e-07
5.0374e-07
7.08489e-07
8.08835e-07
7.88124e-07
6.89769e-07
1.04183e-06
8.25563e-07
8.75751e-07
9.2832e-07
1.95478e-06
8.42765e-07
1.38052e-06
1.38544e-06
2.5793e-06
8.63183e-07
1.61045e-06
1.85179e-06
3.84689e-06
8.86654e-07
2.28998e-06
2.30316e-06
6.22588e-06
9.25291e-07
2.71537e-06
3.17968e-06
7.68196e-06
9.47239e-07
3.75897e-06
3.82512e-06
1.05243e-05
1.01439e-06
4.21741e-06
4.27184e-06
1.21475e-05
1.05974e-06
5.79483e-06
5.99185e-06
1.6031e-05
1.15214e-06
5.99578e-06
6.71824e-06
1.69107e-05
1.21933e-06
9.09418e-06
7.947e-06
2.11249e-05
1.38528e-06
9.45427e-06
9.10472e-06
2.11809e-05
1.50197e-06
1.00491e-05
1.09232e-05
2.38379e-05
1.71571e-06
1.26526e-05
1.24663e-05
2.57182e-05
1.98847e-06
1.35815e-05
1.41368e-05
2.66357e-05
2.18212e-06
1.61554e-05
1.55371e-05
2.85376e-05
2.69996e-06
1.66855e-05
1.75256e-05
2.95658e-05
2.87334e-06
2.01937e-05
1.8833e-05
3.10215e-05
3.83591e-06
2.1478e-05
2.19473e-05
3.23254e-05
3.97829e-06
2.17032e-05
2.23928e-05
3.27063e-05
4.98889e-06
2.52511e-05
2.50663e-05
3.48886e-05
5.7204e-06
2.65945e-05
2.67097e-05
3.56495e-05
6.42326e-06
2.80566e-05
2.80328e-05
3.65059e-05
7.29011e-06
2.99755e-05
2.98956e-05
3.77732e-05
8.56634e-06
3.13257e-05
3.1429e-05
3.87546e-05
9.80342e-06
3.32877e-05
3.32495e-05
3.99043e-05
1.08276e-05
3.44805e-05
3.42616e-05
4.06945e-05
1.2408e-05
3.592e-05
3.62423e-05
4.20089e-05
1.37009e-05
3.73892e-05
3.72002e-05
4.27193e-05
1.53296e-05
3.82213e-05
3.85053e-05
4.36608e-05
1.67572e-05
3.98021e-05
3.9487e-05
4.46248e-05
1.80395e-05
4.09665e-05
4.08138e-05
4.52695e-05
1.97692e-05
4.14735e-05
4.19243e-05
4.62971e-05
2.12085e-05
4.28131e-05
4.26352e-05
4.65951e-05
2.27834e-05
4.35828e-05
4.38243e-05
4.78649e-05
2.3955e-05
4.47888e-05
4.47237e-05
4.81975e-05
2.58934e-05
4.57317e-05
4.55411e-05
4.89763e-05
2.64037e-05
4.58001e-05
4.57308e-05
4.88852e-05
2.89369e-05
4.80829e-05
4.814e-05
5.12353e-05
3.04926e-05
4.83168e-05
4.83394e-05
5.11692e-05
2.97443e-05
4.61379e-05
4.61267e-05
4.87482e-05
2.84641e-05
4.53606e-05
4.53476e-05
4.79848e-05
3.07824e-05
4.87578e-05
4.87479e-05
5.14882e-05
3.6364e-05
5.26597e-05
5.26557e-05
5.51694e-05
3.9563e-05
5.47722e-05
5.4768e-05
5.70216e-05
4.05749e-05
5.51669e-05
5.51648e-05
5.70658e-05
3.76686e-05
5.09826e-05
5.09854e-05
5.28225e-05
3.20218e-05
4.61513e-05
4.61536e-05
4.82555e-05
2.86961e-05
4.43111e-05
4.43126e-05
4.66692e-05
2.87209e-05
4.56825e-05
4.56828e-05
4.83405e-05
3.38222e-05
4.85338e-05
4.8534e-05
5.08496e-05
3.75462e-05
5.05337e-05
5.05342e-05
5.26793e-05
3.95169e-05
5.15728e-05
5.15736e-05
5.36602e-05
4.03802e-05
5.20159e-05
5.20165e-05
5.41044e-05
4.07414e-05
5.21921e-05
5.21926e-05
5.42817e-05
4.08643e-05
5.22393e-05
5.22399e-05
5.43366e-05
4.0878e-05
5.22373e-05
5.22379e-05
5.43459e-05
4.08827e-05
5.22366e-05
5.2237e-05
5.43342e-05
4.0891e-05
5.22465e-05
5.22469e-05
5.43596e-05
4.08859e-05
5.22373e-05
5.22379e-05
5.43397e-05
4.08881e-05
5.2243e-05
5.22436e-05
5.43493e-05
4.08872e-05
5.22404e-05
5.22409e-05
5.43514e-05
4.08868e-05
5.22402e-05
5.22408e-05
5.43394e-05
4.08871e-05
5.22414e-05
5.22419e-05
5.43551e-05
4.08868e-05
5.22404e-05
5.22408e-05
5.43389e-05
4.08869e-05
5.22414e-05
5.22419e-05
5.43549e-05
4.08866e-05
5.22405e-05
5.22409e-05
5.43386e-05
4.08867e-05
5.22415e-05
5.2242e-05
5.43547e-05
4.08868e-05
5.22416e-05
5.2242e-05
5.43388e-05
4.08872e-05
5.22426e-05
5.22431e-05
5.43533e-05
4.08873e-05
5.22441e-05
5.22445e-05
5.43437e-05
4.08765e-05
5.22273e-05
5.22275e-05
5.43388e-05
4.04481e-05
5.10908e-05
5.10896e-05
5.40124e-05
3.69067e-07
3.55167e-07
3.3591e-07
3.48489e-07
3.42394e-07
3.49924e-07
6.39677e-07
6.39406e-07
6.45835e-07
6.33656e-07
3.46129e-07
3.66945e-07
3.629e-07
3.10551e-07
3.43689e-07
3.57037e-07
3.67972e-07
3.50638e-07
3.49902e-07
3.35926e-07
3.37454e-07
3.2411e-07
3.46556e-07
3.31959e-07
3.43114e-07
3.51785e-07
3.30568e-07
3.39126e-07
5.63797e-07
3.38266e-07
4.87976e-07
3.61887e-07
3.4369e-07
3.45172e-07
2.98706e-07
3.35071e-07
3.47614e-07
3.49301e-07
3.33182e-07
3.33511e-07
3.20385e-07
3.21966e-07
3.09871e-07
3.29262e-07
3.15806e-07
3.26467e-07
3.35132e-07
3.1541e-07
3.23931e-07
4.47605e-07
3.22749e-07
3.35362e-07
3.42315e-07
3.25997e-07
3.31201e-07
2.92154e-07
3.19587e-07
3.23885e-07
3.31947e-07
3.17795e-07
3.18112e-07
3.0658e-07
3.07362e-07
2.97285e-07
3.13237e-07
3.01528e-07
3.12026e-07
3.20342e-07
3.02178e-07
3.10176e-07
3.05742e-07
3.09916e-07
2.47742e-07
3.24072e-07
3.10241e-07
3.15763e-07
2.87042e-07
3.04438e-07
3.0528e-07
3.16072e-07
3.03389e-07
3.03966e-07
2.94273e-07
2.9415e-07
2.85683e-07
2.99249e-07
2.89277e-07
2.99043e-07
3.06883e-07
2.89936e-07
2.96934e-07
2.37103e-07
2.97118e-07
2.20087e-07
3.0782e-07
2.95029e-07
3.01006e-07
2.8489e-07
2.9153e-07
2.89751e-07
3.01366e-07
2.89939e-07
2.90973e-07
2.82908e-07
2.82514e-07
2.75016e-07
2.87241e-07
2.78122e-07
2.86966e-07
2.93602e-07
2.78658e-07
2.844e-07
2.17313e-07
2.85341e-07
2.13207e-07
2.9257e-07
2.82326e-07
2.88326e-07
2.88055e-07
2.79156e-07
2.76435e-07
2.87984e-07
2.77416e-07
2.79801e-07
2.72552e-07
2.71699e-07
2.65367e-07
2.7626e-07
2.67868e-07
2.76014e-07
2.81636e-07
2.68502e-07
2.74192e-07
2.12642e-07
2.73678e-07
2.11539e-07
2.80486e-07
2.72957e-07
2.76361e-07
2.91946e-07
2.69424e-07
2.64906e-07
2.75548e-07
2.6535e-07
2.69176e-07
2.62969e-07
2.62088e-07
2.56083e-07
2.66168e-07
2.57952e-07
2.66083e-07
2.71873e-07
2.59429e-07
2.6523e-07
2.11157e-07
2.6306e-07
2.09641e-07
2.71422e-07
2.66785e-07
2.67303e-07
2.96517e-07
2.61167e-07
2.5499e-07
2.6389e-07
2.5436e-07
2.59819e-07
2.53841e-07
2.5333e-07
2.4776e-07
2.56252e-07
2.47705e-07
2.57285e-07
2.63256e-07
2.51766e-07
2.57497e-07
2.09045e-07
2.54571e-07
2.07382e-07
2.66584e-07
2.70805e-07
2.59275e-07
3.35751e-07
2.53585e-07
2.45959e-07
2.53342e-07
2.44596e-07
2.51403e-07
2.46095e-07
2.46473e-07
2.41616e-07
2.45989e-07
2.38065e-07
2.50398e-07
2.5569e-07
2.45812e-07
2.50718e-07
2.06814e-07
2.46547e-07
2.06508e-07
2.71177e-07
2.78407e-07
2.5161e-07
3.9593e-07
2.46274e-07
2.36854e-07
2.4389e-07
2.3618e-07
2.4506e-07
2.40148e-07
2.41292e-07
2.36684e-07
2.37259e-07
2.2987e-07
2.44274e-07
2.49375e-07
2.40826e-07
2.45718e-07
2.06613e-07
2.39602e-07
2.07892e-07
2.78337e-07
2.78886e-07
2.44732e-07
4.2271e-07
2.40588e-07
2.28452e-07
2.35624e-07
2.29172e-07
2.40047e-07
2.35747e-07
2.37282e-07
2.33619e-07
2.29266e-07
2.22343e-07
2.39975e-07
2.44641e-07
2.37281e-07
2.4144e-07
2.08495e-07
2.34863e-07
2.10771e-07
2.78124e-07
2.64456e-07
2.3927e-07
3.99326e-07
2.35591e-07
2.2172e-07
2.28774e-07
2.23003e-07
2.36519e-07
2.3296e-07
2.34744e-07
2.32357e-07
2.21902e-07
2.1636e-07
2.3641e-07
2.4051e-07
2.34438e-07
2.38338e-07
2.11911e-07
2.31652e-07
2.15993e-07
2.62142e-07
2.43713e-07
2.34528e-07
3.35726e-07
2.32727e-07
2.16605e-07
2.22768e-07
2.17917e-07
2.34432e-07
2.32487e-07
2.34072e-07
2.33968e-07
2.1616e-07
2.12521e-07
2.34358e-07
2.37698e-07
2.34556e-07
2.36827e-07
2.17482e-07
2.30483e-07
2.21617e-07
2.42514e-07
2.32447e-07
2.32385e-07
3.01397e-07
2.32535e-07
2.13027e-07
2.17945e-07
2.1461e-07
2.34214e-07
2.34678e-07
2.35604e-07
2.36949e-07
2.12593e-07
2.10641e-07
2.34751e-07
2.36879e-07
2.36036e-07
2.37945e-07
2.23084e-07
2.31673e-07
2.28303e-07
2.32033e-07
2.24326e-07
2.32864e-07
2.81084e-07
2.34777e-07
2.12429e-07
2.14977e-07
2.1446e-07
2.3637e-07
2.37922e-07
2.40715e-07
2.41195e-07
2.11216e-07
2.11196e-07
2.36567e-07
2.38752e-07
2.39623e-07
2.41922e-07
2.30052e-07
2.35972e-07
2.36235e-07
2.24286e-07
2.18444e-07
2.35738e-07
2.55361e-07
2.39681e-07
2.1427e-07
2.15677e-07
2.18696e-07
2.42282e-07
2.4349e-07
2.50042e-07
2.49571e-07
2.12802e-07
2.16784e-07
2.41058e-07
2.43453e-07
2.48436e-07
2.50937e-07
2.38663e-07
2.45677e-07
2.49044e-07
2.18896e-07
2.19467e-07
2.41283e-07
2.38841e-07
2.48831e-07
2.20973e-07
2.22868e-07
2.32439e-07
2.54543e-07
2.53193e-07
2.6501e-07
2.66239e-07
2.19698e-07
2.33589e-07
2.53322e-07
2.539e-07
2.64101e-07
2.66863e-07
2.52563e-07
2.63491e-07
2.68307e-07
2.21429e-07
2.29495e-07
2.51558e-07
2.37755e-07
2.64586e-07
2.36398e-07
2.37273e-07
2.65887e-07
2.7175e-07
2.7182e-07
2.91265e-07
2.94901e-07
2.39663e-07
2.62986e-07
2.71676e-07
2.71812e-07
2.92385e-07
2.95431e-07
2.74039e-07
2.91441e-07
2.9792e-07
2.35064e-07
2.56788e-07
2.69367e-07
2.52539e-07
2.9217e-07
2.69288e-07
2.73811e-07
3.4491e-07
2.98934e-07
3.0495e-07
3.44199e-07
3.39527e-07
2.77437e-07
3.24366e-07
3.00657e-07
3.02034e-07
3.47798e-07
3.41324e-07
3.06525e-07
3.34836e-07
3.42847e-07
2.68253e-07
3.14822e-07
3.00291e-07
2.9278e-07
3.34639e-07
3.30112e-07
3.65814e-07
4.26394e-07
3.54194e-07
3.60908e-07
4.01487e-07
3.96408e-07
3.47253e-07
4.35087e-07
3.59506e-07
3.60363e-07
4.07417e-07
3.97786e-07
3.56259e-07
3.93072e-07
4.16463e-07
3.4542e-07
4.10432e-07
3.46316e-07
3.47954e-07
4.09089e-07
4.52451e-07
4.73253e-07
6.83197e-07
4.32246e-07
4.14603e-07
5.06304e-07
5.36001e-07
4.4985e-07
7.39818e-07
4.37797e-07
4.2642e-07
5.07421e-07
5.14876e-07
4.36208e-07
5.32125e-07
5.20213e-07
4.33384e-07
6.8031e-07
4.28312e-07
4.75345e-07
5.06023e-07
6.30367e-07
7.20533e-07
1.07823e-06
5.37032e-07
5.46759e-07
6.72052e-07
6.82183e-07
7.69736e-07
1.07718e-06
5.3245e-07
5.44423e-07
6.77168e-07
6.57474e-07
5.6359e-07
6.70258e-07
6.46998e-07
7.26784e-07
9.71553e-07
5.52664e-07
6.26395e-07
6.34652e-07
9.96041e-07
1.18411e-06
1.52371e-06
7.02375e-07
7.98908e-07
8.83161e-07
8.84942e-07
1.41914e-06
1.53374e-06
6.97562e-07
7.03425e-07
8.81213e-07
9.03443e-07
6.97256e-07
8.76232e-07
9.41778e-07
1.07663e-06
1.61855e-06
6.77408e-07
8.80987e-07
9.16634e-07
1.79459e-06
1.79298e-06
2.5265e-06
9.66512e-07
8.84166e-07
1.20536e-06
1.24113e-06
1.48301e-06
2.87121e-06
9.38887e-07
9.51948e-07
1.20642e-06
1.16938e-06
9.76725e-07
1.2206e-06
1.18848e-06
1.73198e-06
2.46017e-06
9.47178e-07
1.28666e-06
1.16888e-06
2.21375e-06
2.63265e-06
3.44316e-06
1.27405e-06
1.3981e-06
1.45705e-06
1.53816e-06
3.42565e-06
3.88668e-06
1.31269e-06
1.31163e-06
1.44606e-06
1.54887e-06
1.34364e-06
1.52918e-06
1.54267e-06
2.63557e-06
4.08033e-06
1.29572e-06
1.66632e-06
1.53532e-06
3.78502e-06
3.71694e-06
6.05225e-06
1.65005e-06
1.65429e-06
2.22711e-06
2.10327e-06
3.91572e-06
5.81619e-06
1.5525e-06
1.66662e-06
2.21549e-06
2.17408e-06
1.66742e-06
2.15455e-06
2.13762e-06
4.36186e-06
5.45347e-06
1.63826e-06
2.25602e-06
2.1252e-06
5.7891e-06
6.42428e-06
6.72963e-06
2.29e-06
2.24865e-06
2.54806e-06
2.61507e-06
6.21968e-06
7.18569e-06
2.28259e-06
2.23178e-06
2.58551e-06
2.49532e-06
2.31546e-06
2.53034e-06
2.62595e-06
5.90751e-06
6.63759e-06
2.29523e-06
2.87603e-06
2.56795e-06
7.34401e-06
7.17348e-06
1.02864e-05
2.92315e-06
2.73871e-06
3.51341e-06
3.51829e-06
7.57111e-06
1.00045e-05
2.92603e-06
2.90247e-06
3.40447e-06
3.66595e-06
2.69861e-06
3.57493e-06
3.59627e-06
7.36323e-06
1.10967e-05
2.66674e-06
3.76339e-06
3.54023e-06
9.64173e-06
1.04004e-05
1.14426e-05
3.53595e-06
3.7472e-06
4.08394e-06
4.03322e-06
1.05954e-05
1.16744e-05
3.44056e-06
3.71278e-06
4.07589e-06
3.85306e-06
3.87631e-06
3.98402e-06
4.13066e-06
1.12168e-05
1.0447e-05
3.80967e-06
4.00959e-06
4.06341e-06
1.20413e-05
1.26792e-05
1.55116e-05
4.68089e-06
4.2815e-06
5.42501e-06
5.70549e-06
1.20513e-05
1.57121e-05
4.60144e-06
4.14306e-06
5.4739e-06
5.39731e-06
4.23499e-06
5.63819e-06
5.57637e-06
1.08358e-05
1.58538e-05
4.15413e-06
5.56357e-06
5.54284e-06
1.5158e-05
1.56787e-05
1.64506e-05
5.46771e-06
5.8536e-06
6.10034e-06
5.89246e-06
1.60185e-05
1.5519e-05
5.5378e-06
5.72754e-06
6.14672e-06
6.28517e-06
5.84135e-06
5.86789e-06
6.07492e-06
1.64772e-05
1.71462e-05
5.88658e-06
6.65326e-06
6.1536e-06
1.67381e-05
1.72124e-05
1.95966e-05
6.76134e-06
5.98478e-06
7.68434e-06
8.59575e-06
1.56251e-05
2.18054e-05
6.74634e-06
6.42146e-06
7.54605e-06
7.55362e-06
6.27228e-06
8.56093e-06
8.22425e-06
1.74061e-05
1.9181e-05
6.26882e-06
7.39645e-06
8.02622e-06
2.05184e-05
1.98195e-05
2.12399e-05
7.75792e-06
9.20271e-06
8.95666e-06
9.59507e-06
2.25653e-05
2.21516e-05
7.62014e-06
8.07438e-06
8.9357e-06
8.89212e-06
8.56853e-06
9.45281e-06
8.78214e-06
1.97633e-05
2.14725e-05
8.45907e-06
9.00225e-06
8.77866e-06
2.10803e-05
2.20169e-05
2.3403e-05
9.56174e-06
9.58435e-06
1.02796e-05
9.63451e-06
2.21472e-05
2.25363e-05
9.6021e-06
8.98369e-06
1.03155e-05
1.02827e-05
8.8095e-06
9.60598e-06
9.85778e-06
2.1759e-05
2.31825e-05
8.82182e-06
1.01008e-05
1.00148e-05
2.29854e-05
2.35928e-05
2.50205e-05
1.05204e-05
9.90266e-06
1.19955e-05
1.2426e-05
2.31422e-05
2.53916e-05
1.04667e-05
1.10616e-05
1.16666e-05
1.23082e-05
1.08951e-05
1.23093e-05
1.24496e-05
2.38016e-05
2.53064e-05
1.0974e-05
1.23574e-05
1.23263e-05
2.54845e-05
2.5604e-05
2.65741e-05
1.26324e-05
1.28334e-05
1.36429e-05
1.32076e-05
2.57723e-05
2.63989e-05
1.23233e-05
1.23987e-05
1.38804e-05
1.34298e-05
1.25612e-05
1.31168e-05
1.36201e-05
2.55277e-05
2.63467e-05
1.24304e-05
1.33939e-05
1.36154e-05
2.63106e-05
2.67961e-05
2.81075e-05
1.37414e-05
1.34446e-05
1.50441e-05
1.56889e-05
2.67513e-05
2.81697e-05
1.40608e-05
1.41569e-05
1.48998e-05
1.51142e-05
1.40853e-05
1.57269e-05
1.49394e-05
2.68296e-05
2.82416e-05
1.40135e-05
1.50747e-05
1.48917e-05
2.81475e-05
2.84881e-05
2.91562e-05
1.58466e-05
1.62013e-05
1.73533e-05
1.66537e-05
2.84104e-05
2.87461e-05
1.56208e-05
1.56037e-05
1.7306e-05
1.7337e-05
1.55173e-05
1.6528e-05
1.7459e-05
2.85355e-05
2.91833e-05
1.55129e-05
1.72705e-05
1.7516e-05
2.93508e-05
2.93641e-05
3.07135e-05
1.74934e-05
1.67926e-05
1.8242e-05
1.92054e-05
2.9091e-05
3.14175e-05
1.75019e-05
1.75868e-05
1.823e-05
1.81223e-05
1.7778e-05
1.92756e-05
1.82973e-05
2.93705e-05
3.04667e-05
1.78573e-05
1.80907e-05
1.83415e-05
3.05734e-05
3.11786e-05
3.20567e-05
1.9177e-05
2.01624e-05
2.14287e-05
2.14785e-05
3.1792e-05
3.18349e-05
1.90945e-05
1.88282e-05
2.13775e-05
2.14705e-05
1.8865e-05
2.14136e-05
2.1374e-05
3.1047e-05
3.23383e-05
1.88005e-05
2.14776e-05
2.13069e-05
3.21681e-05
3.21733e-05
3.24879e-05
2.17097e-05
2.15539e-05
2.19555e-05
2.16311e-05
3.18796e-05
3.22896e-05
2.17035e-05
2.19457e-05
2.19674e-05
2.23433e-05
2.18436e-05
2.15365e-05
2.22335e-05
3.24564e-05
3.24809e-05
2.17922e-05
2.23355e-05
2.2197e-05
3.24836e-05
3.27973e-05
3.46234e-05
2.21285e-05
2.18116e-05
2.4609e-05
2.44536e-05
3.26988e-05
3.46809e-05
2.2098e-05
2.24048e-05
2.45709e-05
2.40713e-05
2.2312e-05
2.45792e-05
2.41539e-05
3.26985e-05
3.43996e-05
2.22773e-05
2.39716e-05
2.41531e-05
3.44373e-05
3.4969e-05
3.53562e-05
2.53707e-05
2.51126e-05
2.62771e-05
2.65614e-05
3.49519e-05
3.54136e-05
2.53929e-05
2.51263e-05
2.62608e-05
2.6487e-05
2.50443e-05
2.63762e-05
2.6488e-05
3.4895e-05
3.55577e-05
2.50995e-05
2.66148e-05
2.65087e-05
3.55277e-05
3.54713e-05
3.63769e-05
2.63837e-05
2.67653e-05
2.76654e-05
2.72877e-05
3.55776e-05
3.6177e-05
2.63637e-05
2.65867e-05
2.78485e-05
2.77181e-05
2.67164e-05
2.74864e-05
2.76012e-05
3.56453e-05
3.61959e-05
2.66554e-05
2.75091e-05
2.7558e-05
3.62128e-05
3.67313e-05
3.73606e-05
2.83094e-05
2.78966e-05
2.93886e-05
2.97205e-05
3.64594e-05
3.76583e-05
2.83938e-05
2.82199e-05
2.91304e-05
2.92825e-05
2.80328e-05
2.97314e-05
2.94767e-05
3.65375e-05
3.74876e-05
2.80658e-05
2.9397e-05
2.94899e-05
3.75368e-05
3.75144e-05
3.86799e-05
2.95776e-05
2.9937e-05
3.11834e-05
3.08909e-05
3.7843e-05
3.83286e-05
2.94205e-05
2.97476e-05
3.12642e-05
3.13325e-05
2.99123e-05
3.07706e-05
3.10626e-05
3.77043e-05
3.8652e-05
2.98586e-05
3.11935e-05
3.10407e-05
3.85142e-05
3.90563e-05
3.96535e-05
3.18474e-05
3.15479e-05
3.2724e-05
3.29536e-05
3.86355e-05
3.98776e-05
3.1897e-05
3.16339e-05
3.27425e-05
3.25921e-05
3.14475e-05
3.2986e-05
3.27534e-05
3.88744e-05
3.95307e-05
3.14934e-05
3.26489e-05
3.27994e-05
3.9688e-05
3.97412e-05
4.05503e-05
3.28246e-05
3.30797e-05
3.41312e-05
3.39773e-05
4.00274e-05
4.04915e-05
3.28628e-05
3.3112e-05
3.40161e-05
3.41994e-05
3.31466e-05
3.40651e-05
3.4012e-05
3.98135e-05
4.06755e-05
3.31345e-05
3.41529e-05
3.39556e-05
4.04885e-05
4.09164e-05
4.17242e-05
3.47343e-05
3.45932e-05
3.5577e-05
3.57406e-05
4.07717e-05
4.17308e-05
3.45773e-05
3.43744e-05
3.57043e-05
3.55928e-05
3.43407e-05
3.56448e-05
3.5669e-05
4.07963e-05
4.16322e-05
3.43157e-05
3.56081e-05
3.56974e-05
4.17447e-05
4.18388e-05
4.25749e-05
3.57486e-05
3.5838e-05
3.69701e-05
3.6778e-05
4.18597e-05
4.25169e-05
3.59365e-05
3.61651e-05
3.68681e-05
3.69842e-05
3.60979e-05
3.6947e-05
3.69457e-05
4.19968e-05
4.26958e-05
3.61243e-05
3.7146e-05
3.69561e-05
4.25921e-05
4.28614e-05
4.35891e-05
3.74345e-05
3.73587e-05
3.82032e-05
3.84057e-05
4.28266e-05
4.35509e-05
3.72666e-05
3.70817e-05
3.83549e-05
3.81508e-05
3.71782e-05
3.81412e-05
3.80493e-05
4.27591e-05
4.33585e-05
3.71901e-05
3.79735e-05
3.81029e-05
4.3426e-05
4.37147e-05
4.43653e-05
3.83822e-05
3.84757e-05
3.94201e-05
3.89121e-05
4.36163e-05
4.41049e-05
3.86378e-05
3.86134e-05
3.94138e-05
3.93298e-05
3.83719e-05
3.9212e-05
3.95001e-05
4.36944e-05
4.43497e-05
3.84331e-05
3.93416e-05
3.94513e-05
4.44506e-05
4.45762e-05
4.50541e-05
3.97944e-05
3.95313e-05
4.04048e-05
4.08311e-05
4.447e-05
4.54944e-05
3.96279e-05
3.94608e-05
4.0222e-05
4.03736e-05
3.98263e-05
4.08851e-05
4.04068e-05
4.44313e-05
4.51191e-05
3.9714e-05
4.03748e-05
4.02949e-05
4.5098e-05
4.51758e-05
4.59751e-05
4.05869e-05
4.09833e-05
4.15066e-05
4.15193e-05
4.55668e-05
4.57081e-05
4.05374e-05
4.08245e-05
4.17203e-05
4.18345e-05
4.06962e-05
4.12151e-05
4.17624e-05
4.54222e-05
4.61858e-05
4.06488e-05
4.18122e-05
4.18603e-05
4.61699e-05
4.6195e-05
4.67821e-05
4.18088e-05
4.17918e-05
4.25817e-05
4.25513e-05
4.58838e-05
4.67346e-05
4.20022e-05
4.19626e-05
4.26217e-05
4.2406e-05
4.19217e-05
4.24526e-05
4.21954e-05
4.62616e-05
4.64901e-05
4.20383e-05
4.22748e-05
4.22443e-05
4.64342e-05
4.69361e-05
4.7399e-05
4.2885e-05
4.27775e-05
4.35555e-05
4.333e-05
4.69043e-05
4.72816e-05
4.28806e-05
4.27436e-05
4.33997e-05
4.36081e-05
4.25653e-05
4.34902e-05
4.38595e-05
4.66962e-05
4.75672e-05
4.25e-05
4.36846e-05
4.38368e-05
4.77551e-05
4.74863e-05
4.81002e-05
4.3669e-05
4.35171e-05
4.44337e-05
4.44952e-05
4.73831e-05
4.81907e-05
4.34716e-05
4.37197e-05
4.42563e-05
4.43509e-05
4.4006e-05
4.435e-05
4.42792e-05
4.76746e-05
4.80966e-05
4.39989e-05
4.43697e-05
4.42857e-05
4.8012e-05
4.83659e-05
4.88539e-05
4.48222e-05
4.48937e-05
4.55059e-05
4.55241e-05
4.84666e-05
4.89448e-05
4.47028e-05
4.47255e-05
4.55469e-05
4.54525e-05
4.46452e-05
4.56805e-05
4.56043e-05
4.83245e-05
4.88102e-05
4.46473e-05
4.5491e-05
4.56084e-05
4.89462e-05
4.88654e-05
4.87841e-05
4.55271e-05
4.55357e-05
4.55357e-05
4.55144e-05
4.8954e-05
4.8781e-05
4.5591e-05
4.54907e-05
4.56133e-05
4.5541e-05
4.56714e-05
4.57237e-05
4.56606e-05
4.8826e-05
4.87942e-05
4.56804e-05
4.5571e-05
4.56691e-05
4.87691e-05
4.90462e-05
5.10858e-05
4.56962e-05
4.563e-05
4.7704e-05
4.76388e-05
4.89813e-05
5.10337e-05
4.57752e-05
4.57619e-05
4.77585e-05
4.77933e-05
4.57216e-05
4.76253e-05
4.75518e-05
4.90713e-05
5.1115e-05
4.57211e-05
4.77123e-05
4.75113e-05
5.09242e-05
5.13394e-05
5.11814e-05
4.81214e-05
4.80937e-05
4.83961e-05
4.84069e-05
5.13081e-05
5.12023e-05
4.8164e-05
4.81885e-05
4.84221e-05
4.84347e-05
4.80514e-05
4.83973e-05
4.84288e-05
5.137e-05
5.12023e-05
4.8026e-05
4.84274e-05
4.84239e-05
5.12757e-05
5.10575e-05
4.88521e-05
4.83071e-05
4.83278e-05
4.66728e-05
4.6717e-05
5.10838e-05
4.88759e-05
4.83266e-05
4.83328e-05
4.66505e-05
4.66265e-05
4.8366e-05
4.6679e-05
4.67547e-05
5.10728e-05
4.88142e-05
4.83653e-05
4.66697e-05
4.67759e-05
4.89384e-05
4.86852e-05
4.79613e-05
4.61471e-05
4.6185e-05
4.53964e-05
4.54199e-05
4.87042e-05
4.7959e-05
4.61197e-05
4.60953e-05
4.53653e-05
4.53499e-05
4.61843e-05
4.53595e-05
4.53381e-05
4.86426e-05
4.79187e-05
4.62034e-05
4.53466e-05
4.53485e-05
4.79023e-05
4.8072e-05
5.07781e-05
4.53991e-05
4.5421e-05
4.75227e-05
4.75288e-05
4.8065e-05
5.07752e-05
4.53689e-05
4.53556e-05
4.75243e-05
4.75431e-05
4.53318e-05
4.75001e-05
4.7405e-05
4.80347e-05
5.07792e-05
4.53406e-05
4.74866e-05
4.73859e-05
5.06889e-05
5.15553e-05
5.46777e-05
4.87619e-05
4.87725e-05
5.18596e-05
5.18771e-05
5.15575e-05
5.46939e-05
4.87685e-05
4.8787e-05
5.18696e-05
5.18903e-05
4.86902e-05
5.18838e-05
5.18635e-05
5.15626e-05
5.47003e-05
4.86736e-05
5.18795e-05
5.18523e-05
5.4676e-05
5.5163e-05
5.67418e-05
5.26324e-05
5.26503e-05
5.43485e-05
5.43632e-05
5.51805e-05
5.67588e-05
5.26419e-05
5.26622e-05
5.43545e-05
5.4368e-05
5.26487e-05
5.43769e-05
5.43842e-05
5.51864e-05
5.6759e-05
5.26392e-05
5.43725e-05
5.43797e-05
5.67747e-05
5.69858e-05
5.72508e-05
5.47461e-05
5.47585e-05
5.52195e-05
5.52254e-05
5.70015e-05
5.72554e-05
5.47505e-05
5.47604e-05
5.52196e-05
5.52209e-05
5.47839e-05
5.52381e-05
5.52554e-05
5.70005e-05
5.72509e-05
5.4781e-05
5.52353e-05
5.52561e-05
5.72858e-05
5.70341e-05
5.34743e-05
5.51513e-05
5.51548e-05
5.23527e-05
5.23434e-05
5.70344e-05
5.34677e-05
5.51499e-05
5.51486e-05
5.23435e-05
5.23316e-05
5.51847e-05
5.23474e-05
5.23605e-05
5.70289e-05
5.34659e-05
5.51866e-05
5.23502e-05
5.23669e-05
5.34847e-05
5.28141e-05
4.86467e-05
5.09877e-05
5.09789e-05
4.71539e-05
4.7147e-05
5.28077e-05
4.86412e-05
5.09793e-05
5.09699e-05
4.71466e-05
4.71439e-05
5.09911e-05
4.71474e-05
4.71499e-05
5.28061e-05
4.86432e-05
5.09963e-05
4.71499e-05
4.71528e-05
4.86461e-05
4.82559e-05
4.66658e-05
4.61569e-05
4.61509e-05
4.44617e-05
4.44584e-05
4.82512e-05
4.66638e-05
4.61501e-05
4.61494e-05
4.44564e-05
4.44599e-05
4.61525e-05
4.44576e-05
4.44587e-05
4.82531e-05
4.66668e-05
4.61546e-05
4.44593e-05
4.44587e-05
4.66653e-05
4.66695e-05
4.7859e-05
4.43145e-05
4.43119e-05
4.48602e-05
4.4861e-05
4.66678e-05
4.78589e-05
4.43097e-05
4.43138e-05
4.48578e-05
4.48632e-05
4.43123e-05
4.48598e-05
4.48622e-05
4.66707e-05
4.7861e-05
4.43117e-05
4.48605e-05
4.48593e-05
4.78604e-05
4.83393e-05
5.04366e-05
4.56828e-05
4.5684e-05
4.78859e-05
4.78872e-05
4.83395e-05
5.04367e-05
4.56807e-05
4.56852e-05
4.78844e-05
4.78865e-05
4.56848e-05
4.78864e-05
4.78876e-05
4.8341e-05
5.04372e-05
4.56822e-05
4.78865e-05
4.78859e-05
5.04378e-05
5.08486e-05
5.24124e-05
4.85335e-05
4.85347e-05
5.01289e-05
5.01299e-05
5.08487e-05
5.24125e-05
4.85323e-05
4.85338e-05
5.01283e-05
5.01288e-05
4.85353e-05
5.013e-05
5.0131e-05
5.0849e-05
5.24126e-05
4.85338e-05
5.01304e-05
5.01302e-05
5.24139e-05
5.26779e-05
5.35204e-05
5.05326e-05
5.05335e-05
5.13845e-05
5.13852e-05
5.2678e-05
5.35204e-05
5.05324e-05
5.05325e-05
5.13845e-05
5.13844e-05
5.05349e-05
5.13861e-05
5.13871e-05
5.2678e-05
5.35204e-05
5.05343e-05
5.13868e-05
5.13871e-05
5.35222e-05
5.36585e-05
5.40328e-05
5.15712e-05
5.15718e-05
5.19367e-05
5.19372e-05
5.36585e-05
5.40329e-05
5.15714e-05
5.15711e-05
5.19368e-05
5.19366e-05
5.15739e-05
5.19387e-05
5.19395e-05
5.36585e-05
5.4033e-05
5.1574e-05
5.19394e-05
5.19397e-05
5.40347e-05
5.41026e-05
5.42445e-05
5.20139e-05
5.20143e-05
5.21613e-05
5.21617e-05
5.41028e-05
5.42448e-05
5.2014e-05
5.20137e-05
5.21613e-05
5.2161e-05
5.20166e-05
5.21635e-05
5.2164e-05
5.41028e-05
5.42446e-05
5.20169e-05
5.21639e-05
5.21643e-05
5.42464e-05
5.42798e-05
5.43151e-05
5.219e-05
5.21904e-05
5.22327e-05
5.22332e-05
5.42801e-05
5.43154e-05
5.21901e-05
5.21897e-05
5.22329e-05
5.22324e-05
5.21927e-05
5.22349e-05
5.22355e-05
5.42799e-05
5.43152e-05
5.2193e-05
5.22354e-05
5.22359e-05
5.43171e-05
5.43346e-05
5.43291e-05
5.22372e-05
5.22377e-05
5.2238e-05
5.22385e-05
5.43349e-05
5.43293e-05
5.22374e-05
5.22369e-05
5.22382e-05
5.22377e-05
5.224e-05
5.22401e-05
5.22409e-05
5.43346e-05
5.43291e-05
5.22404e-05
5.22407e-05
5.22412e-05
5.4331e-05
5.43439e-05
5.43158e-05
5.22351e-05
5.22356e-05
5.22319e-05
5.22325e-05
5.43441e-05
5.43161e-05
5.22354e-05
5.22349e-05
5.22322e-05
5.22317e-05
5.22381e-05
5.22342e-05
5.22348e-05
5.43439e-05
5.43161e-05
5.22384e-05
5.22347e-05
5.22351e-05
5.43178e-05
5.43323e-05
5.43409e-05
5.22341e-05
5.22348e-05
5.22441e-05
5.22447e-05
5.43328e-05
5.43414e-05
5.22344e-05
5.2234e-05
5.22444e-05
5.22438e-05
5.2237e-05
5.22464e-05
5.22469e-05
5.43326e-05
5.43409e-05
5.22373e-05
5.22468e-05
5.22471e-05
5.43426e-05
5.43578e-05
5.43247e-05
5.22443e-05
5.22448e-05
5.22361e-05
5.22366e-05
5.43582e-05
5.43247e-05
5.22445e-05
5.22439e-05
5.22364e-05
5.22358e-05
5.2247e-05
5.22383e-05
5.22389e-05
5.43578e-05
5.43245e-05
5.22473e-05
5.22388e-05
5.22392e-05
5.43264e-05
5.4338e-05
5.43281e-05
5.22351e-05
5.22356e-05
5.22381e-05
5.22387e-05
5.4338e-05
5.43288e-05
5.22354e-05
5.22349e-05
5.22384e-05
5.2238e-05
5.22379e-05
5.22405e-05
5.2241e-05
5.43378e-05
5.43286e-05
5.22383e-05
5.2241e-05
5.22413e-05
5.43302e-05
5.43472e-05
5.43367e-05
5.22407e-05
5.22413e-05
5.22399e-05
5.22403e-05
5.43479e-05
5.43366e-05
5.22411e-05
5.22406e-05
5.22402e-05
5.22395e-05
5.22436e-05
5.2242e-05
5.22426e-05
5.43476e-05
5.43364e-05
5.22439e-05
5.22424e-05
5.22427e-05
5.43382e-05
5.43501e-05
5.43208e-05
5.22383e-05
5.22387e-05
5.22364e-05
5.22369e-05
5.43499e-05
5.4321e-05
5.22387e-05
5.2238e-05
5.22368e-05
5.22363e-05
5.2241e-05
5.22387e-05
5.22392e-05
5.43496e-05
5.43209e-05
5.22411e-05
5.22392e-05
5.22395e-05
5.43226e-05
5.43374e-05
5.4337e-05
5.22378e-05
5.22385e-05
5.2239e-05
5.22395e-05
5.43379e-05
5.43376e-05
5.22382e-05
5.22378e-05
5.22392e-05
5.22388e-05
5.22407e-05
5.22412e-05
5.22418e-05
5.43377e-05
5.43374e-05
5.2241e-05
5.22417e-05
5.2242e-05
5.43392e-05
5.43533e-05
5.43234e-05
5.22391e-05
5.22397e-05
5.22374e-05
5.22379e-05
5.43536e-05
5.43232e-05
5.22394e-05
5.22389e-05
5.22377e-05
5.22372e-05
5.22419e-05
5.22397e-05
5.22402e-05
5.43534e-05
5.4323e-05
5.22421e-05
5.22401e-05
5.22403e-05
5.43247e-05
5.43373e-05
5.43353e-05
5.2238e-05
5.22386e-05
5.2238e-05
5.22386e-05
5.43374e-05
5.4336e-05
5.22384e-05
5.22378e-05
5.22384e-05
5.22379e-05
5.22409e-05
5.22403e-05
5.22409e-05
5.43371e-05
5.43358e-05
5.2241e-05
5.22408e-05
5.22411e-05
5.43375e-05
5.43528e-05
5.43229e-05
5.22392e-05
5.22397e-05
5.22368e-05
5.22374e-05
5.43534e-05
5.43225e-05
5.22396e-05
5.2239e-05
5.22371e-05
5.22366e-05
5.2242e-05
5.22391e-05
5.22396e-05
5.43531e-05
5.43225e-05
5.22422e-05
5.22395e-05
5.22398e-05
5.43244e-05
5.43369e-05
5.43356e-05
5.22381e-05
5.22388e-05
5.22374e-05
5.2238e-05
5.4337e-05
5.43366e-05
5.22385e-05
5.2238e-05
5.22378e-05
5.22373e-05
5.2241e-05
5.22397e-05
5.22403e-05
5.43368e-05
5.43362e-05
5.22411e-05
5.22401e-05
5.22404e-05
5.43377e-05
5.43527e-05
5.43216e-05
5.22393e-05
5.22398e-05
5.22362e-05
5.22368e-05
5.43533e-05
5.43213e-05
5.22397e-05
5.22391e-05
5.22366e-05
5.2236e-05
5.22421e-05
5.22385e-05
5.22391e-05
5.43529e-05
5.43214e-05
5.22422e-05
5.22389e-05
5.22392e-05
5.43233e-05
5.43369e-05
5.43364e-05
5.22392e-05
5.22399e-05
5.22365e-05
5.2237e-05
5.43375e-05
5.43365e-05
5.22396e-05
5.22391e-05
5.22369e-05
5.22363e-05
5.22421e-05
5.22387e-05
5.22393e-05
5.43371e-05
5.43364e-05
5.22422e-05
5.22391e-05
5.22394e-05
5.43382e-05
5.4352e-05
5.43227e-05
5.22404e-05
5.22409e-05
5.2236e-05
5.22367e-05
5.43508e-05
5.43246e-05
5.22407e-05
5.22401e-05
5.22363e-05
5.22359e-05
5.22432e-05
5.22384e-05
5.22388e-05
5.43512e-05
5.43239e-05
5.22433e-05
5.22388e-05
5.22389e-05
5.43251e-05
5.43408e-05
5.43273e-05
5.22417e-05
5.22424e-05
5.22336e-05
5.22342e-05
5.4344e-05
5.43251e-05
5.2242e-05
5.22416e-05
5.2234e-05
5.22336e-05
5.22445e-05
5.22359e-05
5.22365e-05
5.43429e-05
5.43255e-05
5.22446e-05
5.22363e-05
5.22366e-05
5.43278e-05
5.43381e-05
5.41603e-05
5.22249e-05
5.22256e-05
5.20777e-05
5.20788e-05
5.43365e-05
5.41617e-05
5.22252e-05
5.22247e-05
5.20794e-05
5.20768e-05
5.22276e-05
5.20821e-05
5.20802e-05
5.43366e-05
5.4161e-05
5.22277e-05
5.2081e-05
5.20817e-05
5.41625e-05
5.40108e-05
5.1086e-05
5.10869e-05
5.40113e-05
5.1088e-05
5.1085e-05
4.04499e-05
4.04488e-05
4.04507e-05
5.10883e-05
5.40104e-05
5.10901e-05
1.90703e-06
3.26142e-07
1.18062e-06
1.1778e-06
1.04212e-07
3.50422e-07
4.84578e-07
6.17035e-07
1.12098e-07
3.10055e-07
6.46275e-07
2.16752e-07
3.62111e-07
3.45566e-07
2.79886e-07
3.08716e-07
4.95158e-06
2.64191e-07
6.64537e-06
1.40151e-05
2.1253e-05
3.07244e-07
4.94454e-06
2.69193e-07
6.62276e-06
6.26072e-07
6.32005e-07
6.25965e-07
6.18447e-07
6.18158e-07
6.23922e-07
6.20302e-07
9.93119e-08
7.21219e-07
3.17239e-07
3.48201e-07
1.01241e-07
6.90205e-07
3.13013e-07
1.41117e-05
2.17027e-05
1.14208e-07
3.45012e-07
5.81632e-07
3.03231e-07
1.14752e-07
3.41855e-07
5.68691e-07
1.93913e-06
1.90195e-06
3.5178e-07
1.92466e-06
1.86806e-06
5.01144e-07
9.77589e-06
4.15606e-07
1.26177e-05
3.58176e-05
4.58781e-05
4.80201e-07
9.72942e-06
4.22245e-07
1.25948e-05
6.1911e-07
6.25069e-07
6.19531e-07
6.22839e-07
6.22764e-07
6.29395e-07
6.18969e-07