/*--------------------------------*- C++ -*----------------------------------*\
| =========                 |                                                 |
| \\      /  F ield         | OpenFOAM: The Open Source CFD Toolbox           |
|  \\    /   O peration     | Version:  v1906                                 |
|   \\  /    A nd           | Web:      www.OpenFOAM.com                      |
|    \\/     M anipulation  |                                                 |
\*---------------------------------------------------------------------------*/
FoamFile
{
    version     2.0;
    format      ascii;
    class       volScalarField;
    location    "287.5";
    object      nut;
}
// * * * * * * * * * * * * * * * * * * * * * * * * * * * * * * * * * * * * * //

dimensions      [0 2 -1 0 0 0 0];


internalField   nonuniform List<scalar> 
171728
(
8.11149e-06
2.29523e-06
1.99769e-06
2.21957e-06
7.96816e-06
2.25931e-06
1.93622e-06
2.31772e-06
8.13657e-06
2.28013e-06
1.92153e-06
2.26717e-06
8.31349e-06
2.30356e-06
1.88193e-06
2.2176e-06
8.49837e-06
2.31046e-06
1.86496e-06
2.17965e-06
8.68896e-06
2.30263e-06
1.89645e-06
2.16101e-06
8.87317e-06
2.27455e-06
1.92351e-06
2.14207e-06
9.06963e-06
2.23892e-06
2.09761e-06
2.12359e-06
9.25768e-06
2.19637e-06
2.96901e-06
2.09122e-06
9.45823e-06
2.12422e-06
4.26288e-06
2.02772e-06
9.6388e-06
2.04328e-06
4.92069e-06
1.94759e-06
9.84233e-06
1.96534e-06
4.28105e-06
1.86813e-06
1.00349e-05
1.87477e-06
3.20226e-06
1.78178e-06
1.02343e-05
1.78148e-06
2.66091e-06
1.68655e-06
1.0419e-05
1.6839e-06
2.23249e-06
1.59738e-06
1.06044e-05
1.59126e-06
1.72251e-06
1.48981e-06
1.07873e-05
1.50921e-06
1.37783e-06
1.39009e-06
1.09262e-05
1.45724e-06
1.19894e-06
1.31931e-06
1.1073e-05
1.4453e-06
1.13286e-06
1.32816e-06
1.12093e-05
1.54646e-06
1.2368e-06
1.45127e-06
1.13036e-05
1.53799e-06
1.31883e-06
1.87724e-06
1.13666e-05
2.03159e-06
1.75667e-06
2.37112e-06
1.13844e-05
2.85502e-06
2.33224e-06
3.40898e-06
1.14386e-05
2.99124e-06
3.06933e-06
6.90756e-06
1.14529e-05
4.80363e-06
4.86704e-06
7.61973e-06
1.13094e-05
5.18083e-06
6.28257e-06
1.22101e-05
1.12256e-05
7.89155e-06
7.82137e-06
2.05196e-05
1.12257e-05
8.69462e-06
1.09651e-05
2.4233e-05
1.07736e-05
1.32384e-05
1.35401e-05
3.24491e-05
1.08371e-05
1.31989e-05
1.36052e-05
3.68851e-05
1.05941e-05
2.10115e-05
2.09349e-05
4.97807e-05
1.06407e-05
1.82e-05
2.33089e-05
4.9327e-05
1.03873e-05
3.3075e-05
2.70103e-05
6.57308e-05
1.09822e-05
3.36296e-05
3.11149e-05
6.25392e-05
1.1107e-05
3.23403e-05
3.70432e-05
7.02172e-05
1.16715e-05
4.42941e-05
4.33324e-05
7.70987e-05
1.33896e-05
4.51308e-05
4.85254e-05
7.84592e-05
1.29824e-05
5.67026e-05
5.24796e-05
8.52249e-05
1.67321e-05
5.49236e-05
6.06248e-05
8.82071e-05
1.53748e-05
7.00279e-05
6.20993e-05
9.25172e-05
2.26755e-05
7.52789e-05
7.69475e-05
9.80801e-05
2.1476e-05
7.07149e-05
7.55506e-05
9.7279e-05
2.6526e-05
8.64984e-05
8.4944e-05
0.000106039
3.10084e-05
9.09201e-05
9.17712e-05
0.000108707
3.292e-05
9.45959e-05
9.47787e-05
0.000110927
3.71941e-05
0.000102426
0.000101428
0.000115694
4.27355e-05
0.000105665
0.000106924
0.000118955
5.00225e-05
0.000114034
0.000113543
0.000123311
5.27543e-05
0.000117424
0.000116611
0.000125653
6.1595e-05
0.000122951
0.000124412
0.00013081
6.65176e-05
0.000128608
0.00012814
0.000133265
7.49887e-05
0.000131449
0.000132537
0.000136551
8.13011e-05
0.000137477
0.000136353
0.000140409
8.65468e-05
0.000143499
0.000141509
0.000142441
9.49008e-05
0.000144087
0.000146966
0.000147036
0.000101275
0.000150232
0.000148908
0.000147312
0.00010966
0.000153583
0.000154898
0.000153465
0.000113244
0.000158969
0.000158821
0.000154476
0.000125555
0.000164776
0.000163619
0.000158684
0.000124421
0.000163038
0.000162347
0.000156644
0.000140175
0.000176871
0.000177205
0.000168622
0.000154277
0.000181816
0.000182025
0.000171669
0.000148814
0.000169679
0.000169646
0.00016051
0.000132989
0.000161968
0.000161914
0.000153458
0.000140756
0.000176761
0.000176718
0.0001662
0.000182729
0.000199077
0.000199069
0.000183454
0.000211642
0.00021314
0.000213118
0.000193756
0.000227573
0.000221505
0.000221479
0.000199261
0.000212649
0.000202226
0.000202235
0.000183812
0.000164982
0.000174859
0.000174867
0.000162906
0.000134527
0.000163171
0.000163175
0.000153716
0.000127336
0.000168904
0.0001689
0.000159474
0.000164509
0.000185671
0.000185663
0.000170719
0.000196015
0.000198139
0.000198131
0.000179287
0.000214678
0.000204897
0.00020489
0.000183853
0.000223468
0.000207852
0.000207844
0.000185886
0.000227325
0.000209071
0.000209062
0.000186694
0.000228727
0.000209425
0.000209416
0.000186945
0.000228951
0.000209424
0.000209416
0.000186991
0.000228998
0.000209402
0.000209392
0.000186899
0.000229092
0.00020948
0.00020947
0.000187054
0.00022905
0.000209421
0.000209412
0.000186956
0.000229065
0.000209453
0.000209444
0.000186983
0.000229062
0.000209442
0.000209432
0.000187021
0.000229057
0.000209436
0.000209427
0.000186934
0.000229061
0.000209446
0.000209436
0.000187029
0.000229058
0.000209438
0.000209428
0.000186938
0.000229059
0.000209445
0.000209435
0.000187025
0.000229057
0.000209437
0.000209427
0.000186937
0.000229057
0.000209444
0.000209434
0.000187028
0.000229056
0.000209441
0.000209431
0.000186931
0.000229058
0.000209445
0.000209436
0.000187028
0.000229059
0.000209451
0.000209441
0.000186955
0.000229027
0.000209369
0.000209358
0.000186978
0.000230859
0.000210562
0.000210555
0.000190335
2.38294e-06
2.58039e-06
2.41914e-06
2.28248e-06
2.44681e-06
2.5731e-06
8.45835e-06
8.4503e-06
8.52458e-06
8.41202e-06
2.55956e-06
3.18699e-06
2.35147e-06
2.29177e-06
2.44179e-06
2.23302e-06
2.38051e-06
2.36899e-06
2.3188e-06
2.24247e-06
2.31011e-06
2.22401e-06
2.26981e-06
2.2661e-06
2.27718e-06
2.3435e-06
2.25978e-06
2.3363e-06
3.93689e-06
2.26016e-06
4.32191e-06
2.35026e-06
2.33639e-06
2.27485e-06
1.94799e-06
2.29204e-06
2.3331e-06
2.36828e-06
2.36484e-06
2.31234e-06
2.22181e-06
2.31296e-06
2.21712e-06
2.24573e-06
2.24682e-06
2.25628e-06
2.3384e-06
2.25448e-06
2.34663e-06
4.0877e-06
2.27208e-06
2.94916e-06
2.33532e-06
2.32212e-06
2.29409e-06
1.92445e-06
2.29088e-06
2.27591e-06
2.36395e-06
2.36551e-06
2.30967e-06
2.21639e-06
2.30186e-06
2.21646e-06
2.22576e-06
2.23366e-06
2.25574e-06
2.34875e-06
2.25612e-06
2.35477e-06
2.58144e-06
2.30071e-06
1.87639e-06
2.31906e-06
2.29919e-06
2.28768e-06
1.89242e-06
2.27248e-06
2.22316e-06
2.35559e-06
2.35749e-06
2.29926e-06
2.21571e-06
2.2901e-06
2.21378e-06
2.21463e-06
2.23319e-06
2.25621e-06
2.35552e-06
2.25436e-06
2.34797e-06
1.75859e-06
2.30972e-06
1.59337e-06
2.29174e-06
2.24387e-06
2.27026e-06
1.86796e-06
2.26893e-06
2.18188e-06
2.34069e-06
2.34042e-06
2.28549e-06
2.21184e-06
2.2799e-06
2.2063e-06
2.21547e-06
2.22973e-06
2.25157e-06
2.34222e-06
2.24414e-06
2.32661e-06
1.57327e-06
2.30715e-06
1.56257e-06
2.23229e-06
2.19306e-06
2.26506e-06
1.88229e-06
2.24887e-06
2.16397e-06
2.32194e-06
2.31591e-06
2.27655e-06
2.20403e-06
2.25776e-06
2.19307e-06
2.21188e-06
2.22099e-06
2.24118e-06
2.32226e-06
2.22717e-06
2.31305e-06
1.56899e-06
2.28332e-06
1.59586e-06
2.17497e-06
2.16867e-06
2.24328e-06
1.91868e-06
2.24051e-06
2.14587e-06
2.29588e-06
2.27282e-06
2.2509e-06
2.18568e-06
2.22524e-06
2.15886e-06
2.203e-06
2.19946e-06
2.22103e-06
2.30814e-06
2.20022e-06
2.28828e-06
1.60347e-06
2.24761e-06
1.61547e-06
2.15299e-06
2.19764e-06
2.23915e-06
2.0012e-06
2.22886e-06
2.12859e-06
2.25606e-06
2.21571e-06
2.21441e-06
2.14677e-06
2.173e-06
2.10777e-06
2.1784e-06
2.1488e-06
2.19069e-06
2.28119e-06
2.16111e-06
2.25176e-06
1.61614e-06
2.20923e-06
1.61108e-06
2.20458e-06
2.40035e-06
2.22404e-06
2.67896e-06
2.19879e-06
2.09806e-06
2.2031e-06
2.1507e-06
2.1594e-06
2.09683e-06
2.11845e-06
2.06169e-06
2.12362e-06
2.07926e-06
2.15799e-06
2.23965e-06
2.12428e-06
2.19858e-06
1.60718e-06
2.14315e-06
1.60584e-06
2.41279e-06
2.63904e-06
2.18475e-06
3.96515e-06
2.13954e-06
2.03742e-06
2.13939e-06
2.0777e-06
2.10579e-06
2.04587e-06
2.06188e-06
2.00455e-06
2.06595e-06
2.00644e-06
2.10708e-06
2.1874e-06
2.0615e-06
2.14473e-06
1.60636e-06
2.06264e-06
1.61513e-06
2.64067e-06
2.7475e-06
2.12475e-06
4.82884e-06
2.07555e-06
1.9576e-06
2.06531e-06
1.99923e-06
2.0446e-06
1.98945e-06
1.99334e-06
1.94592e-06
1.99341e-06
1.91552e-06
2.0507e-06
2.1292e-06
2.00319e-06
2.06893e-06
1.61833e-06
1.98521e-06
1.62384e-06
2.7323e-06
2.56348e-06
2.05644e-06
4.6309e-06
1.98908e-06
1.88081e-06
1.98471e-06
1.90581e-06
1.97592e-06
1.92811e-06
1.91637e-06
1.88463e-06
1.90005e-06
1.81974e-06
1.98399e-06
2.04619e-06
1.92208e-06
1.98106e-06
1.62736e-06
1.89752e-06
1.64434e-06
2.51521e-06
2.22122e-06
1.96488e-06
3.4179e-06
1.90282e-06
1.79857e-06
1.88695e-06
1.79503e-06
1.89709e-06
1.87192e-06
1.83138e-06
1.83301e-06
1.80083e-06
1.72476e-06
1.90594e-06
1.95729e-06
1.85098e-06
1.87972e-06
1.6497e-06
1.80529e-06
1.64548e-06
2.18665e-06
2.01245e-06
1.88349e-06
2.76353e-06
1.82688e-06
1.70715e-06
1.77129e-06
1.67094e-06
1.81004e-06
1.81865e-06
1.74068e-06
1.75862e-06
1.70208e-06
1.61846e-06
1.8296e-06
1.85479e-06
1.76053e-06
1.77772e-06
1.63985e-06
1.70781e-06
1.62073e-06
1.98075e-06
1.8074e-06
1.80622e-06
2.34945e-06
1.74403e-06
1.62152e-06
1.63898e-06
1.54421e-06
1.71581e-06
1.73616e-06
1.65173e-06
1.65851e-06
1.59158e-06
1.49744e-06
1.73266e-06
1.75231e-06
1.64942e-06
1.67106e-06
1.60986e-06
1.60987e-06
1.56989e-06
1.76928e-06
1.59878e-06
1.72049e-06
1.85217e-06
1.64942e-06
1.51974e-06
1.51137e-06
1.39899e-06
1.62749e-06
1.6393e-06
1.55691e-06
1.55463e-06
1.46575e-06
1.38581e-06
1.62204e-06
1.64417e-06
1.55054e-06
1.57292e-06
1.55342e-06
1.52653e-06
1.52145e-06
1.55246e-06
1.41981e-06
1.62428e-06
1.45733e-06
1.55726e-06
1.41621e-06
1.37466e-06
1.31647e-06
1.54737e-06
1.53296e-06
1.47808e-06
1.48488e-06
1.34868e-06
1.31262e-06
1.54591e-06
1.54769e-06
1.47749e-06
1.48872e-06
1.50833e-06
1.46841e-06
1.48233e-06
1.38078e-06
1.27845e-06
1.53262e-06
1.23567e-06
1.47892e-06
1.33144e-06
1.27726e-06
1.3127e-06
1.47258e-06
1.4704e-06
1.43934e-06
1.45851e-06
1.29473e-06
1.26045e-06
1.47795e-06
1.47016e-06
1.46126e-06
1.46921e-06
1.47363e-06
1.44398e-06
1.4717e-06
1.25892e-06
1.22948e-06
1.45983e-06
1.14027e-06
1.44564e-06
1.31422e-06
1.28211e-06
1.49297e-06
1.4237e-06
1.46447e-06
1.53278e-06
1.49525e-06
1.27741e-06
1.3534e-06
1.44716e-06
1.45174e-06
1.56643e-06
1.50072e-06
1.46947e-06
1.46878e-06
1.51357e-06
1.23868e-06
1.27896e-06
1.44282e-06
1.17285e-06
1.47497e-06
1.40647e-06
1.5471e-06
1.56867e-06
1.53215e-06
1.56644e-06
1.58357e-06
1.56384e-06
1.38433e-06
1.66457e-06
1.57682e-06
1.55866e-06
1.63166e-06
1.56199e-06
1.53097e-06
1.55239e-06
1.67557e-06
1.37712e-06
1.52335e-06
1.47926e-06
1.26702e-06
1.64167e-06
1.71534e-06
1.69389e-06
2.51288e-06
1.6834e-06
1.55709e-06
1.8636e-06
2.06382e-06
1.60297e-06
2.81125e-06
1.73203e-06
1.64425e-06
1.8808e-06
1.90579e-06
1.71288e-06
2.05164e-06
1.92706e-06
1.50353e-06
2.47199e-06
1.68088e-06
1.68972e-06
1.85502e-06
2.14662e-06
2.56645e-06
3.73806e-06
1.93827e-06
2.03693e-06
2.38454e-06
2.30155e-06
2.85505e-06
3.28021e-06
1.91952e-06
1.98316e-06
2.44034e-06
2.28449e-06
2.08536e-06
2.24547e-06
2.22908e-06
2.58107e-06
3.18649e-06
2.03221e-06
2.10144e-06
2.19065e-06
3.43981e-06
4.16662e-06
4.65136e-06
2.43421e-06
2.90814e-06
2.97837e-06
3.22898e-06
4.88001e-06
5.61853e-06
2.44204e-06
2.41142e-06
2.99e-06
3.13974e-06
2.36143e-06
3.19303e-06
3.35448e-06
3.479e-06
5.40559e-06
2.27062e-06
2.98208e-06
3.23757e-06
6.19854e-06
5.6391e-06
8.5567e-06
3.27762e-06
3.01996e-06
4.16153e-06
4.11897e-06
5.06957e-06
8.94545e-06
3.15757e-06
3.26225e-06
4.1216e-06
3.84623e-06
3.42565e-06
4.02235e-06
3.92469e-06
5.65857e-06
7.94509e-06
3.27448e-06
4.49805e-06
3.87649e-06
6.47784e-06
8.66755e-06
1.05659e-05
4.38081e-06
4.90385e-06
4.54595e-06
5.0489e-06
1.15235e-05
1.312e-05
4.58892e-06
4.43438e-06
4.5969e-06
5.07566e-06
4.62202e-06
5.05604e-06
5.06822e-06
8.31866e-06
1.35605e-05
4.3852e-06
5.50088e-06
5.0709e-06
1.26113e-05
1.11493e-05
2.021e-05
5.26213e-06
5.37051e-06
7.86101e-06
7.04658e-06
1.2515e-05
1.89837e-05
4.7496e-06
5.42815e-06
7.7897e-06
7.65175e-06
5.44813e-06
7.34936e-06
7.18408e-06
1.45975e-05
1.74887e-05
5.34365e-06
7.98789e-06
7.1607e-06
1.87844e-05
2.17505e-05
1.97624e-05
7.97105e-06
7.59249e-06
7.96661e-06
8.64714e-06
2.05738e-05
2.23151e-05
7.93932e-06
7.73738e-06
8.22691e-06
7.60157e-06
7.93187e-06
8.16413e-06
8.77825e-06
1.92608e-05
1.87279e-05
7.87516e-06
9.55367e-06
8.45529e-06
2.33498e-05
2.04451e-05
3.38088e-05
9.6949e-06
8.87861e-06
1.24424e-05
1.20455e-05
2.32229e-05
3.13477e-05
9.81902e-06
9.412e-06
1.18095e-05
1.318e-05
8.67669e-06
1.24355e-05
1.23025e-05
2.06264e-05
3.7764e-05
8.52696e-06
1.35568e-05
1.20833e-05
2.8999e-05
3.36557e-05
3.23718e-05
1.2098e-05
1.30659e-05
1.28342e-05
1.28871e-05
3.35167e-05
3.4943e-05
1.15227e-05
1.31687e-05
1.29403e-05
1.21493e-05
1.36739e-05
1.27365e-05
1.37579e-05
3.79725e-05
2.97702e-05
1.33706e-05
1.28456e-05
1.35182e-05
3.76096e-05
3.69816e-05
4.89714e-05
1.57998e-05
1.34416e-05
1.91863e-05
2.07009e-05
3.51499e-05
5.01898e-05
1.54016e-05
1.30095e-05
1.93726e-05
1.83767e-05
1.35035e-05
2.03401e-05
1.95445e-05
2.96569e-05
4.90983e-05
1.32011e-05
1.89155e-05
1.92575e-05
4.60239e-05
4.89379e-05
4.79753e-05
1.88426e-05
2.137e-05
1.97589e-05
1.91395e-05
5.11665e-05
4.4343e-05
1.9185e-05
1.98316e-05
2.01509e-05
2.14579e-05
2.08027e-05
1.8921e-05
1.99385e-05
5.16378e-05
5.21094e-05
2.09863e-05
2.35752e-05
2.06685e-05
4.9997e-05
5.04106e-05
5.93625e-05
2.29497e-05
1.81692e-05
2.68258e-05
3.00346e-05
4.28149e-05
6.74215e-05
2.30477e-05
2.14641e-05
2.61625e-05
2.54181e-05
1.98654e-05
3.0115e-05
2.92704e-05
5.21766e-05
5.67806e-05
2.02144e-05
2.45715e-05
2.80759e-05
6.30588e-05
5.94818e-05
6.2307e-05
2.63955e-05
3.34805e-05
3.0181e-05
3.50853e-05
7.1106e-05
6.84775e-05
2.56701e-05
2.77844e-05
3.00233e-05
3.07341e-05
3.10664e-05
3.42394e-05
3.06517e-05
5.86437e-05
6.42168e-05
3.03358e-05
3.13686e-05
3.05568e-05
6.31481e-05
6.51916e-05
7.00714e-05
3.31067e-05
3.44563e-05
3.50913e-05
3.14442e-05
6.77654e-05
6.53065e-05
3.33286e-05
3.03094e-05
3.55919e-05
3.41926e-05
2.97827e-05
3.12023e-05
3.16069e-05
6.46271e-05
6.81919e-05
2.97715e-05
3.32179e-05
3.25644e-05
6.69468e-05
7.00963e-05
7.39221e-05
3.54438e-05
3.14298e-05
4.06892e-05
4.33988e-05
6.71671e-05
7.60405e-05
3.54792e-05
3.7855e-05
3.89324e-05
4.33105e-05
3.66508e-05
4.29e-05
4.38829e-05
7.03508e-05
7.58018e-05
3.72535e-05
4.35503e-05
4.32866e-05
7.65687e-05
7.6178e-05
7.91405e-05
4.35818e-05
4.52409e-05
4.73899e-05
4.45208e-05
7.72441e-05
7.79969e-05
4.16877e-05
4.29366e-05
4.85296e-05
4.5149e-05
4.36681e-05
4.38216e-05
4.66311e-05
7.61373e-05
7.75971e-05
4.29528e-05
4.50269e-05
4.67521e-05
7.78363e-05
7.93557e-05
8.38731e-05
4.68633e-05
4.4411e-05
5.03121e-05
5.43694e-05
7.88907e-05
8.46235e-05
4.87e-05
4.85626e-05
4.97368e-05
5.10849e-05
4.85256e-05
5.47937e-05
5.00166e-05
7.90907e-05
8.44379e-05
4.82398e-05
5.09946e-05
4.96823e-05
8.38191e-05
8.52292e-05
8.68672e-05
5.39544e-05
5.67624e-05
6.05036e-05
5.64419e-05
8.52164e-05
8.43324e-05
5.27883e-05
5.27309e-05
6.02018e-05
6.02969e-05
5.21029e-05
5.5762e-05
6.07554e-05
8.5376e-05
8.72112e-05
5.19975e-05
5.99944e-05
6.10327e-05
8.7884e-05
8.70589e-05
9.15824e-05
6.02912e-05
5.55753e-05
5.99876e-05
6.48697e-05
8.49364e-05
9.5234e-05
6.03694e-05
6.09164e-05
6.01022e-05
5.9614e-05
6.1798e-05
6.53618e-05
6.0749e-05
8.73567e-05
9.00326e-05
6.22412e-05
5.94419e-05
6.11802e-05
9.08795e-05
9.34284e-05
9.72723e-05
6.40578e-05
6.97108e-05
7.49004e-05
7.5908e-05
9.68781e-05
9.65843e-05
6.37179e-05
6.20416e-05
7.46137e-05
7.46356e-05
6.24405e-05
7.56804e-05
7.42531e-05
9.23497e-05
9.85651e-05
6.22095e-05
7.47315e-05
7.39001e-05
9.77178e-05
9.73296e-05
9.67335e-05
7.5891e-05
7.5572e-05
7.39636e-05
7.21222e-05
9.61692e-05
9.54952e-05
7.59059e-05
7.6883e-05
7.42455e-05
7.65978e-05
7.64337e-05
7.16981e-05
7.59443e-05
9.87754e-05
9.70648e-05
7.61578e-05
7.66365e-05
7.57771e-05
9.70325e-05
9.74429e-05
0.000105307
7.32428e-05
7.12943e-05
8.34751e-05
8.27152e-05
9.67028e-05
0.000105607
7.32805e-05
7.55139e-05
8.32291e-05
8.01029e-05
7.48937e-05
8.34122e-05
8.08079e-05
9.72643e-05
0.000103863
7.47411e-05
7.95487e-05
8.07452e-05
0.000104145
0.000106684
0.000107712
8.71451e-05
8.55668e-05
9.02398e-05
9.16535e-05
0.000106584
0.00010799
8.73067e-05
8.53293e-05
9.01296e-05
9.1308e-05
8.50112e-05
9.05992e-05
9.11298e-05
0.000106001
0.000108782
8.52844e-05
9.21148e-05
9.14001e-05
0.000108584
0.000107714
0.00011076
8.97458e-05
9.20567e-05
9.33916e-05
9.14133e-05
0.000108285
0.000109778
8.95163e-05
9.08636e-05
9.46103e-05
9.39082e-05
9.15572e-05
9.24999e-05
9.34119e-05
0.00010873
0.000109883
9.13277e-05
9.28179e-05
9.3087e-05
0.000110003
0.000112108
0.000114213
9.61859e-05
9.36374e-05
9.99762e-05
0.000101699
0.000110636
0.000115671
9.70072e-05
9.58715e-05
9.84731e-05
9.8924e-05
9.47747e-05
0.000101802
0.000100064
0.000111065
0.000114719
9.49113e-05
9.95228e-05
0.000100268
0.000114961
0.000114416
0.000118773
9.99034e-05
0.00010212
0.000105656
0.000104092
0.000116168
0.000117156
9.88583e-05
0.000100491
0.000106105
0.000107095
0.000101663
0.000103612
0.000105528
0.000115326
0.000118992
0.000101452
0.000106499
0.000105313
0.000118237
0.000120309
0.000122641
0.000108803
0.000106874
0.000112029
0.000113163
0.000118113
0.000123553
0.000109105
0.000108042
0.000112126
0.000110589
0.000106783
0.000112941
0.000111694
0.000119663
0.00012172
0.000106981
0.000110786
0.000112084
0.000122627
0.000122612
0.000125096
0.000111596
0.00011313
0.000115921
0.000115125
0.000123933
0.00012504
0.000111846
0.00011275
0.000115287
0.000117056
0.000113238
0.000115895
0.000115768
0.000122689
0.0001262
0.000113288
0.000116976
0.000115433
0.000125111
0.000126532
0.000129956
0.000118783
0.000117881
0.000121918
0.000123021
0.000125966
0.000130058
0.000117754
0.000117179
0.000122436
0.000121337
0.000116721
0.000122079
0.000121977
0.000126354
0.000129122
0.000116554
0.000121271
0.00012213
0.000129845
0.00013012
0.000132654
0.000122027
0.000122828
0.000126614
0.000125336
0.000130302
0.000132367
0.000123038
0.000124074
0.000126039
0.00012745
0.000123857
0.000126597
0.000126965
0.000130604
0.000133716
0.000123999
0.00012853
0.000127028
0.000133026
0.000133735
0.000136809
0.000128788
0.00012808
0.000131769
0.000133196
0.000133563
0.000136845
0.000127669
0.000127224
0.000132369
0.000130966
0.000127618
0.0001317
0.000130581
0.000133654
0.000135326
0.000127691
0.000129938
0.000130893
0.000135762
0.000137073
0.000139534
0.000132112
0.000133065
0.000136204
0.000132747
0.00013682
0.000137806
0.000133502
0.000133171
0.000136543
0.000136052
0.000131765
0.00013454
0.000136625
0.000136685
0.000139576
0.000132155
0.000136137
0.000136505
0.000139857
0.000140286
0.000142079
0.000137972
0.000135712
0.000140211
0.000142515
0.000139235
0.000144382
0.000137306
0.000136165
0.000138935
0.000139366
0.00013811
0.000143308
0.000139832
0.000139617
0.000141924
0.000137601
0.000139433
0.00013908
0.000141971
0.000142299
0.000145505
0.000140677
0.000143086
0.000144409
0.000144709
0.000144516
0.000144409
0.000140109
0.000141516
0.000145679
0.000146629
0.000140884
0.00014319
0.000146118
0.000143126
0.000146817
0.000140462
0.000146599
0.000146605
0.000146616
0.000146316
0.000148889
0.000145754
0.000145836
0.000149049
0.000149253
0.000144887
0.000148783
0.000147038
0.000147064
0.000149637
0.000148117
0.000146799
0.000148396
0.000146596
0.000146956
0.000147353
0.000147459
0.000147336
0.000147018
0.000146974
0.000149399
0.000151416
0.0001505
0.000150291
0.000153648
0.000152446
0.000149404
0.000150873
0.000150855
0.000149646
0.000153075
0.000154013
0.000148121
0.000153485
0.000155259
0.000148013
0.00015217
0.000147777
0.000154317
0.00015509
0.000153059
0.000151556
0.000154098
0.000153901
0.000153055
0.000157109
0.000157642
0.000151022
0.000154509
0.00015302
0.00015436
0.000156084
0.000156848
0.000156019
0.000156587
0.000156395
0.000152482
0.000154199
0.00015594
0.000156956
0.000156415
0.000153843
0.000155264
0.000158215
0.000159267
0.00015992
0.000163543
0.000163876
0.00015573
0.000158651
0.000158524
0.000158864
0.000163728
0.000163194
0.000158248
0.000164488
0.00016409
0.000155139
0.000157913
0.000158239
0.000163394
0.000164083
0.000158649
0.000158135
0.000156427
0.0001636
0.000163849
0.000162135
0.000162136
0.000158562
0.000156485
0.000163933
0.000163302
0.000162557
0.000161909
0.000164506
0.000163477
0.000163306
0.000157829
0.000156364
0.000164539
0.000162292
0.000163406
0.000156786
0.000157077
0.000167826
0.000162183
0.000161854
0.000174202
0.000173627
0.000156789
0.000167436
0.000162627
0.000162341
0.000174541
0.000174626
0.000162752
0.00017361
0.000173143
0.000157104
0.000167881
0.000162809
0.000174132
0.000172883
0.0001669
0.000169272
0.000171821
0.000177212
0.00017687
0.000181299
0.000181137
0.00016899
0.00017181
0.000177475
0.000177492
0.000181488
0.000181487
0.000176662
0.000181159
0.000181296
0.000169337
0.000171932
0.000176496
0.000181403
0.000181253
0.000172111
0.000171261
0.000161243
0.000181883
0.000181792
0.00017313
0.000173269
0.000171289
0.000161355
0.000182034
0.00018201
0.000172986
0.000172771
0.000182089
0.000173127
0.000173719
0.000171353
0.000161086
0.000182078
0.000173111
0.000173885
0.000161783
0.000160107
0.000154362
0.000169769
0.000169884
0.000163754
0.000163826
0.000160192
0.000154364
0.000169588
0.000169371
0.000163537
0.000163374
0.000170092
0.00016351
0.000163491
0.000159922
0.000154146
0.000170249
0.000163458
0.000163606
0.00015419
0.000153793
0.000163438
0.000162219
0.000162305
0.000170286
0.000170269
0.000153768
0.000163407
0.000161997
0.000161842
0.000170267
0.000170339
0.000161913
0.00017008
0.00016947
0.000153598
0.000163417
0.000162029
0.000170016
0.000169393
0.000162951
0.000166578
0.000181293
0.00017685
0.000176865
0.000194309
0.000194387
0.000166572
0.000181366
0.000176867
0.000176943
0.00019437
0.000194475
0.000176305
0.000194424
0.00019425
0.000166589
0.000181395
0.000176239
0.000194415
0.000194206
0.000181237
0.000183468
0.000192232
0.000198931
0.00019902
0.000209994
0.000210085
0.000183551
0.000192328
0.000198994
0.000199104
0.00021005
0.000210133
0.000198962
0.000210182
0.000210187
0.000183577
0.000192326
0.000198925
0.000210162
0.000210174
0.000192368
0.000193602
0.00019991
0.00021296
0.000213041
0.000219417
0.000219478
0.000193694
0.00019996
0.000213008
0.000213069
0.000219452
0.000219467
0.000213177
0.000219584
0.000219671
0.000193685
0.000199926
0.000213173
0.000219555
0.000219681
0.000200092
0.000199097
0.000187389
0.000221356
0.000221404
0.000209505
0.00020945
0.000199118
0.000187369
0.000221382
0.000221377
0.000209469
0.000209366
0.000221604
0.000209495
0.000209574
0.000199078
0.000187343
0.000221622
0.000209503
0.000209628
0.000187446
0.000183767
0.00016528
0.000202237
0.000202186
0.000180733
0.00018069
0.000183747
0.00016526
0.000202207
0.000202119
0.000180708
0.000180661
0.000202273
0.000180708
0.000180709
0.000183724
0.000165256
0.000202319
0.000180717
0.00018074
0.000165274
0.000162912
0.000154238
0.00017488
0.000174842
0.000164302
0.000164279
0.000162895
0.000154234
0.000174857
0.000174823
0.000164286
0.000164281
0.000174851
0.00016429
0.000164278
0.000162892
0.000154238
0.000174877
0.000164295
0.000164291
0.00015423
0.000153723
0.00015756
0.000163179
0.000163161
0.000164205
0.000164205
0.000153719
0.000157565
0.000163166
0.000163166
0.000164204
0.000164216
0.00016316
0.000164215
0.00016421
0.000153723
0.000157566
0.00016317
0.000164214
0.000164207
0.000157562
0.000159473
0.000169044
0.000168892
0.000168895
0.000181755
0.000181758
0.000159479
0.000169051
0.000168893
0.0001689
0.00018176
0.000181751
0.000168898
0.000181773
0.000181758
0.000159478
0.000169043
0.000168896
0.000181765
0.000181762
0.000169044
0.000170719
0.000178265
0.000185653
0.000185656
0.000195544
0.000195545
0.000170726
0.000178273
0.00018566
0.000185646
0.000195555
0.000195533
0.000185656
0.000195568
0.000195548
0.000170717
0.000178262
0.000185662
0.00019556
0.000195558
0.000178266
0.000179286
0.000183422
0.000198115
0.000198115
0.00020364
0.00020364
0.000179293
0.000183429
0.000198128
0.000198103
0.000203656
0.000203628
0.00019812
0.000203668
0.000203647
0.000179282
0.000183417
0.000198131
0.000203661
0.000203662
0.000183424
0.000183851
0.000185763
0.000204869
0.000204868
0.000207302
0.000207299
0.000183858
0.00018577
0.000204886
0.000204856
0.000207319
0.000207289
0.000204876
0.000207333
0.000207309
0.000183847
0.000185759
0.000204892
0.000207325
0.000207327
0.000185765
0.000185884
0.000186725
0.000207821
0.000207818
0.000208835
0.000208833
0.000185891
0.000186734
0.000207838
0.000207808
0.000208852
0.000208822
0.000207828
0.000208868
0.000208842
0.00018588
0.000186721
0.000207846
0.000208859
0.00020886
0.000186728
0.000186691
0.000187052
0.000209038
0.000209036
0.000209356
0.000209354
0.000186699
0.000187061
0.000209056
0.000209025
0.000209374
0.000209342
0.000209045
0.000209389
0.000209364
0.000186687
0.000187048
0.000209064
0.00020938
0.000209383
0.000187056
0.000186942
0.000187123
0.000209392
0.00020939
0.000209411
0.000209409
0.00018695
0.000187131
0.00020941
0.000209378
0.000209429
0.000209397
0.0002094
0.000209444
0.000209419
0.000186938
0.000187118
0.000209419
0.000209436
0.000209438
0.000187126
0.000186987
0.000187033
0.000209391
0.000209389
0.00020936
0.000209358
0.000186995
0.000187041
0.00020941
0.000209377
0.000209379
0.000209347
0.0002094
0.000209394
0.000209369
0.000186983
0.00018703
0.000209418
0.000209385
0.000209387
0.000187037
0.000186895
0.000187173
0.000209367
0.000209366
0.000209442
0.00020944
0.000186904
0.000187183
0.000209386
0.000209354
0.00020946
0.000209428
0.000209375
0.000209475
0.000209449
0.000186892
0.000187169
0.000209394
0.000209466
0.000209467
0.000187175
0.000187051
0.000187104
0.000209446
0.000209445
0.000209397
0.000209394
0.000187061
0.000187111
0.000209464
0.000209432
0.000209415
0.000209382
0.000209453
0.00020943
0.000209404
0.000187047
0.000187098
0.000209471
0.000209421
0.000209422
0.000187106
0.000186954
0.000187093
0.000209387
0.000209385
0.000209401
0.0002094
0.00018696
0.000187104
0.000209406
0.000209374
0.000209419
0.000209388
0.000209395
0.000209435
0.000209409
0.000186948
0.000187091
0.000209414
0.000209426
0.000209428
0.000187097
0.000186979
0.000187165
0.000209419
0.000209417
0.000209421
0.000209418
0.000186989
0.000187172
0.000209437
0.000209406
0.000209439
0.000209406
0.000209427
0.000209454
0.000209428
0.000186977
0.000187158
0.000209445
0.000209444
0.000209445
0.000187166
0.000187021
0.000187063
0.000209409
0.000209406
0.000209395
0.000209392
0.000187027
0.000187071
0.000209428
0.000209394
0.000209413
0.000209381
0.000209415
0.000209428
0.000209402
0.000187014
0.000187058
0.000209433
0.000209419
0.00020942
0.000187064
0.000186932
0.000187152
0.000209402
0.0002094
0.000209413
0.000209411
0.00018694
0.000187163
0.00020942
0.000209389
0.000209431
0.000209399
0.00020941
0.000209446
0.00020942
0.000186928
0.00018715
0.000209428
0.000209437
0.000209438
0.000187157
0.000187025
0.000187087
0.000209412
0.00020941
0.000209403
0.000209401
0.000187035
0.000187092
0.00020943
0.000209398
0.000209422
0.000209389
0.000209419
0.000209437
0.00020941
0.000187022
0.000187078
0.000209437
0.000209427
0.000209428
0.000187086
0.000186938
0.00018714
0.000209404
0.000209402
0.000209407
0.000209405
0.000186944
0.000187152
0.000209422
0.00020939
0.000209426
0.000209394
0.000209411
0.000209441
0.000209415
0.000186931
0.000187139
0.000209429
0.000209432
0.000209433
0.000187145
0.000187021
0.000187085
0.000209411
0.000209409
0.000209401
0.000209399
0.000187032
0.000187088
0.00020943
0.000209397
0.00020942
0.000209388
0.000209419
0.000209435
0.000209409
0.000187019
0.000187077
0.000209437
0.000209425
0.000209427
0.000187085
0.000186937
0.000187144
0.000209403
0.000209402
0.000209406
0.000209404
0.000186941
0.00018716
0.000209422
0.00020939
0.000209425
0.000209393
0.000209411
0.00020944
0.000209414
0.00018693
0.000187144
0.000209429
0.00020943
0.000209431
0.000187149
0.000187024
0.000187071
0.00020941
0.000209408
0.0002094
0.000209398
0.000187037
0.000187073
0.000209429
0.000209397
0.000209418
0.000209386
0.000209418
0.000209434
0.000209408
0.000187023
0.000187063
0.000209435
0.000209424
0.000209425
0.000187072
0.000186929
0.000187157
0.000209407
0.000209406
0.000209404
0.000209402
0.000186936
0.000187169
0.000209426
0.000209394
0.000209423
0.00020939
0.000209415
0.000209438
0.000209411
0.000186924
0.000187155
0.000209432
0.000209428
0.000209429
0.000187161
0.000187027
0.000187067
0.000209412
0.00020941
0.000209403
0.000209402
0.00018703
0.000187083
0.000209431
0.000209398
0.000209421
0.000209389
0.000209419
0.000209437
0.000209411
0.00018702
0.000187067
0.000209437
0.000209427
0.000209428
0.000187072
0.000186945
0.000187135
0.000209416
0.000209416
0.000209455
0.000209453
0.00018697
0.000187127
0.000209435
0.000209403
0.000209474
0.000209442
0.000209424
0.000209488
0.000209463
0.000186952
0.000187117
0.000209442
0.00020948
0.000209481
0.000187129
0.000186983
0.000188477
0.000209334
0.000209333
0.000211921
0.000211924
0.000186976
0.000188489
0.000209353
0.00020932
0.00021194
0.000211916
0.00020934
0.000211951
0.000211931
0.000186967
0.00018848
0.00020936
0.000211943
0.000211948
0.000188487
0.00019033
0.000210536
0.000210538
0.000190334
0.000210552
0.00021053
0.000230867
0.000230865
0.000230871
0.000210544
0.000190325
0.00021056
2.85132e-05
3.34972e-06
1.75484e-05
1.74896e-05
6.36268e-07
2.47639e-06
1.82393e-06
8.97349e-06
7.32355e-07
2.27909e-06
9.07488e-06
1.36819e-06
2.225e-06
9.78105e-07
1.7253e-06
1.14124e-06
1.3484e-05
1.04148e-06
1.52797e-05
1.09537e-05
1.30643e-05
1.15036e-06
1.34739e-05
1.07004e-06
1.52522e-05
8.10362e-06
8.17259e-06
8.18751e-06
7.93707e-06
7.92534e-06
7.98322e-06
8.0754e-06
5.77462e-07
5.41595e-07
3.56894e-06
2.27626e-06
5.94971e-07
6.63112e-07
3.52394e-06
1.09362e-05
1.32031e-05
7.54348e-07
3.25661e-06
3.87523e-07
1.97614e-06
7.57608e-07
3.21787e-06
5.0461e-07
1.51645e-06
1.49801e-06
2.2669e-06
1.7259e-06
1.69723e-06
1.34873e-06
1.85211e-05
1.26556e-06
2.1031e-05
1.69645e-05
1.91721e-05
1.30742e-06
1.84737e-05
1.24626e-06
2.10151e-05
7.96076e-06
8.01627e-06
8.07702e-06
8.09499e-06
8.08767e-06
8.14176e-06