/*--------------------------------*- C++ -*----------------------------------*\
| =========                 |                                                 |
| \\      /  F ield         | OpenFOAM: The Open Source CFD Toolbox           |
|  \\    /   O peration     | Version:  v1906                                 |
|   \\  /    A nd           | Web:      www.OpenFOAM.com                      |
|    \\/     M anipulation  |                                                 |
\*---------------------------------------------------------------------------*/
FoamFile
{
    version     2.0;
    format      ascii;
    class       volScalarField;
    location    "287.5";
    object      p;
}
// * * * * * * * * * * * * * * * * * * * * * * * * * * * * * * * * * * * * * //

dimensions      [0 2 -2 0 0 0 0];


internalField   nonuniform List<scalar> 
171728
(
0.00352657
0.00352543
0.00352523
0.0035261
0.00349085
0.0034894
0.0034893
0.00349224
0.00345271
0.00345077
0.00345077
0.00345303
0.00340851
0.00340684
0.00340681
0.00340905
0.00336017
0.00335868
0.00335866
0.003361
0.00331142
0.00330999
0.00331007
0.00331241
0.00326346
0.00326219
0.00326217
0.00326456
0.00321616
0.00321503
0.0032151
0.00321741
0.00316977
0.00316873
0.00316881
0.00317114
0.00312449
0.00312359
0.00312359
0.00312597
0.00308007
0.00307927
0.00307932
0.00308164
0.00303639
0.00303573
0.00303575
0.00303808
0.00299329
0.00299271
0.00299268
0.00299508
0.00295057
0.00295012
0.00295013
0.00295245
0.0029082
0.00290789
0.00290779
0.00291013
0.00286612
0.00286589
0.00286576
0.0028681
0.00282443
0.00282417
0.00282407
0.00282632
0.00278303
0.00278278
0.0027828
0.00278497
0.00274202
0.00274187
0.00274186
0.00274394
0.00270139
0.00270132
0.00270141
0.00270324
0.00266109
0.00266095
0.00266104
0.00266285
0.00262105
0.00262081
0.00262102
0.00262282
0.00258134
0.00258147
0.00258142
0.00258293
0.00254181
0.00254152
0.00254199
0.00254356
0.00250265
0.00250286
0.00250285
0.00250488
0.0024637
0.0024638
0.00246355
0.00246532
0.00242491
0.0024251
0.00242494
0.00242697
0.00238637
0.00238662
0.00238658
0.00238834
0.00234796
0.00234818
0.0023482
0.00235069
0.00230992
0.00231021
0.00231025
0.00231174
0.00227185
0.00227206
0.00227223
0.00227453
0.00223416
0.00223468
0.00223439
0.00223629
0.00219633
0.0021966
0.00219679
0.00219874
0.00215885
0.00215904
0.00215921
0.00216106
0.00212146
0.00212204
0.00212193
0.00212381
0.00208428
0.0020845
0.00208451
0.00208653
0.00204705
0.00204752
0.00204747
0.00204936
0.00201024
0.00201034
0.00201041
0.00201232
0.00197339
0.00197393
0.00197365
0.00197559
0.0019369
0.00193669
0.00193707
0.00193901
0.00190014
0.00190037
0.00190012
0.00190216
0.00186384
0.00186412
0.00186418
0.00186627
0.00182783
0.00182761
0.00182763
0.00182959
0.00179139
0.0017915
0.00179144
0.00179353
0.00175561
0.00175553
0.00175554
0.00175757
0.00171973
0.00171962
0.00171963
0.00172171
0.00168425
0.00168405
0.00168402
0.00168604
0.00164845
0.00164828
0.00164831
0.00165041
0.00161324
0.00161298
0.001613
0.00161501
0.00157781
0.00157761
0.00157753
0.00157962
0.00154266
0.00154231
0.00154238
0.00154437
0.00150747
0.00150728
0.00150722
0.00150929
0.00147249
0.00147222
0.00147223
0.0014742
0.00143766
0.00143722
0.00143737
0.00143934
0.00140282
0.00140266
0.00140247
0.00140446
0.00136815
0.00136781
0.00136795
0.00136993
0.00133361
0.00133339
0.00133333
0.00133522
0.0012994
0.00129901
0.00129901
0.00130097
0.00126489
0.00126463
0.00126469
0.00126649
0.00123127
0.00123116
0.00123113
0.00123305
0.00119694
0.00119647
0.00119645
0.00119834
0.00116169
0.00116147
0.00116145
0.00116333
0.00112687
0.00112721
0.00112721
0.00112925
0.00109414
0.00109435
0.00109436
0.0010963
0.00106312
0.00106219
0.00106218
0.00106376
0.00102992
0.00102922
0.00102921
0.00103085
0.000994476
0.000994119
0.000994106
0.00099605
0.000955753
0.000955587
0.000955588
0.000957812
0.000914994
0.00091588
0.00091588
0.000918442
0.000876907
0.000877626
0.000877625
0.000880074
0.000842818
0.000843097
0.000843097
0.000845124
0.000812786
0.000812229
0.000812229
0.000813664
0.000783567
0.000783009
0.000783009
0.000784381
0.000754113
0.000753802
0.000753805
0.000755374
0.000722408
0.000722247
0.000722248
0.000724035
0.000688376
0.000688291
0.000688291
0.000690235
0.000652973
0.000652925
0.000652925
0.000654953
0.000616923
0.000616897
0.000616897
0.000618963
0.000580608
0.000580584
0.000580584
0.000582667
0.00054421
0.000544183
0.000544183
0.000546268
0.000507776
0.000507749
0.000507749
0.000509837
0.000471334
0.000471306
0.000471306
0.000473393
0.000434894
0.000434867
0.000434867
0.000436954
0.00039845
0.000398421
0.000398421
0.000400509
0.000362009
0.000361983
0.000361983
0.00036407
0.000325566
0.000325538
0.000325538
0.000327625
0.000289124
0.000289096
0.000289096
0.000291182
0.00025268
0.000252654
0.000252654
0.000254739
0.000216237
0.00021621
0.000216211
0.000218293
0.000179795
0.000179768
0.000179768
0.000181848
0.000143352
0.000143328
0.000143328
0.000145399
0.000106904
0.000106883
0.000106883
0.000108938
7.04615e-05
7.04347e-05
7.04334e-05
7.2456e-05
3.47804e-05
3.42078e-05
3.42047e-05
3.60773e-05
6.14791e-06
7.0367e-06
7.03574e-06
5.28946e-06
0.00353127
0.00352874
0.0035285
0.00353093
0.00352884
0.00352826
0.00353508
0.00353491
0.00353472
0.00353482
0.00352847
0.00352843
0.00353069
0.00352834
0.00352839
0.00353086
0.00352639
0.003497
0.00352557
0.00352545
0.00349891
0.00349891
0.00352613
0.00349708
0.00352554
0.00352515
0.00349887
0.00349877
0.0035254
0.0034989
0.0034989
0.00352592
0.00349692
0.00352536
0.00349881
0.00349882
0.00349696
0.00349225
0.00345849
0.00348941
0.00348944
0.00346074
0.00346072
0.00349232
0.00345852
0.00348935
0.00348932
0.00346074
0.00346074
0.00348946
0.00346073
0.00346066
0.00349219
0.00345851
0.00348941
0.00346078
0.00346067
0.00345851
0.00345301
0.00341525
0.00345073
0.00345075
0.00341833
0.00341833
0.00345304
0.00341526
0.00345073
0.00345074
0.0034183
0.00341834
0.00345078
0.00341834
0.00341836
0.00345304
0.00341526
0.00345078
0.00341837
0.00341832
0.00341523
0.00340906
0.00336752
0.00340684
0.00340683
0.00337084
0.00337085
0.00340906
0.0033675
0.00340686
0.00340683
0.00337087
0.00337086
0.00340692
0.00337084
0.00337093
0.00340907
0.00336751
0.00340689
0.00337093
0.00337086
0.00336747
0.00336103
0.00331882
0.00335868
0.00335869
0.00332211
0.0033221
0.00336102
0.00331882
0.00335867
0.00335871
0.00332206
0.00332209
0.00335869
0.00332208
0.00332204
0.00336104
0.00331882
0.00335868
0.0033221
0.00332209
0.00331883
0.0033124
0.00327083
0.00331
0.00331
0.00327406
0.00327408
0.0033124
0.00327083
0.00331005
0.00331002
0.00327411
0.00327408
0.00330999
0.00327407
0.00327403
0.00331242
0.00327085
0.00331
0.0032741
0.00327409
0.00327086
0.00326454
0.00322359
0.00326218
0.00326218
0.00322676
0.00322676
0.00326454
0.0032236
0.00326222
0.0032622
0.00322682
0.00322676
0.00326213
0.00322676
0.00322673
0.00326456
0.00322361
0.00326217
0.00322673
0.00322675
0.00322361
0.00321739
0.00317718
0.00321501
0.00321502
0.00318023
0.0031802
0.0032174
0.00317719
0.00321504
0.00321504
0.00318024
0.00318021
0.00321503
0.0031802
0.00318019
0.00321743
0.00317719
0.003215
0.00318027
0.00318018
0.00317718
0.00317114
0.00313188
0.00316872
0.00316874
0.0031348
0.00313477
0.00317115
0.00313187
0.00316877
0.00316876
0.00313479
0.0031348
0.00316875
0.00313479
0.00313477
0.00317117
0.00313189
0.00316874
0.00313488
0.00313476
0.00313187
0.00312599
0.00308746
0.00312359
0.00312359
0.00309027
0.0030903
0.00312597
0.00308747
0.00312358
0.00312357
0.00309028
0.00309028
0.0031236
0.0030903
0.00309026
0.003126
0.00308747
0.00312359
0.00309036
0.00309026
0.00308742
0.00308168
0.00304379
0.00307927
0.00307928
0.00304651
0.0030465
0.00308168
0.00304379
0.00307926
0.00307925
0.00304649
0.00304657
0.00307925
0.0030465
0.00304652
0.00308169
0.00304376
0.00307923
0.00304658
0.00304654
0.00304377
0.00303812
0.00300067
0.00303572
0.00303572
0.00300332
0.00300334
0.00303814
0.00300069
0.00303571
0.00303571
0.00300334
0.0030034
0.00303567
0.00300334
0.0030034
0.0030381
0.00300062
0.00303568
0.00300343
0.0030034
0.00300068
0.00299511
0.002958
0.00299279
0.00299271
0.00296067
0.00296064
0.0029951
0.00295794
0.00299277
0.00299268
0.00296068
0.00296066
0.00299275
0.00296065
0.00296074
0.002995
0.002958
0.00299274
0.00296055
0.00296071
0.00295799
0.00295251
0.00291563
0.00295018
0.00295012
0.00291829
0.00291837
0.00295243
0.00291564
0.00295019
0.00295014
0.0029183
0.00291826
0.00295007
0.00291838
0.00291837
0.0029525
0.00291566
0.00295008
0.00291834
0.00291838
0.00291563
0.0029102
0.00287356
0.00290784
0.00290789
0.00287631
0.00287632
0.00291016
0.00287359
0.00290784
0.00290782
0.0028763
0.00287614
0.00290779
0.00287631
0.00287626
0.00291017
0.00287349
0.00290778
0.00287612
0.00287628
0.00287356
0.00286814
0.00283191
0.00286579
0.00286591
0.00283462
0.00283443
0.00286818
0.00283175
0.00286579
0.0028658
0.00283463
0.00283452
0.0028657
0.00283439
0.00283444
0.0028681
0.00283171
0.00286569
0.00283442
0.00283444
0.00283172
0.00282653
0.00279031
0.00282429
0.00282415
0.00279301
0.00279311
0.00282642
0.0027903
0.00282429
0.00282395
0.00279303
0.00279304
0.00282404
0.00279313
0.00279308
0.00282631
0.0027903
0.00282404
0.0027931
0.00279312
0.00279029
0.00278504
0.00274924
0.00278285
0.0027828
0.00275191
0.00275212
0.00278497
0.00274924
0.00278284
0.00278259
0.00275196
0.002752
0.00278271
0.00275212
0.00275204
0.00278496
0.00274919
0.00278269
0.00275215
0.00275202
0.00274915
0.00274394
0.0027085
0.00274178
0.0027419
0.00271141
0.0027114
0.00274399
0.0027085
0.00274166
0.00274165
0.00271141
0.0027114
0.0027418
0.00271141
0.00271139
0.00274392
0.0027084
0.00274187
0.00271155
0.00271139
0.00270843
0.00270328
0.00266807
0.00270124
0.00270134
0.00267102
0.00267089
0.00270332
0.00266808
0.00270112
0.00270123
0.00267094
0.00267086
0.00270114
0.00267086
0.0026711
0.00270328
0.00266795
0.00270119
0.00267099
0.00267108
0.00266794
0.00266292
0.00262792
0.00266101
0.00266096
0.00263094
0.00263102
0.0026628
0.00262784
0.00266099
0.00266097
0.00263083
0.0026309
0.00266093
0.00263096
0.00263095
0.0026628
0.00262779
0.00266099
0.00263105
0.00263102
0.00262782
0.00262274
0.00258811
0.00262085
0.00262079
0.00259133
0.00259147
0.00262266
0.00258823
0.00262091
0.00262099
0.00259114
0.00259112
0.00262104
0.00259145
0.00259105
0.00262278
0.00258797
0.00262113
0.00259129
0.00259111
0.00258801
0.00258302
0.00254871
0.00258122
0.0025815
0.00255178
0.00255137
0.00258337
0.00254832
0.00258126
0.00258134
0.00255165
0.00255158
0.0025812
0.00255138
0.00255175
0.00258308
0.00254845
0.00258131
0.00255172
0.00255176
0.00254863
0.00254375
0.00250929
0.00254189
0.00254153
0.00251243
0.00251271
0.00254309
0.00251005
0.00254191
0.00254182
0.00251238
0.00251242
0.00254174
0.00251275
0.00251259
0.00254351
0.00250933
0.00254185
0.00251236
0.00251251
0.00250969
0.00250431
0.00247048
0.00250261
0.00250283
0.00247351
0.00247343
0.00250489
0.00247005
0.00250261
0.0025027
0.00247348
0.00247343
0.00250286
0.00247341
0.00247339
0.00250445
0.00247049
0.0025029
0.0024733
0.00247335
0.00247014
0.00246563
0.00243206
0.00246379
0.00246383
0.00243475
0.00243472
0.00246528
0.00243201
0.00246378
0.00246369
0.00243477
0.00243471
0.00246382
0.00243476
0.00243466
0.00246546
0.00243211
0.00246375
0.00243469
0.00243467
0.002432
0.00242689
0.00239364
0.00242493
0.00242508
0.00239626
0.00239612
0.00242696
0.00239332
0.00242496
0.00242497
0.00239621
0.00239622
0.00242506
0.00239609
0.00239607
0.00242692
0.00239393
0.00242505
0.00239629
0.00239613
0.00239335
0.00238896
0.00235491
0.00238665
0.00238658
0.00235769
0.00235784
0.00238847
0.00235532
0.00238666
0.00238665
0.00235764
0.00235775
0.00238652
0.00235778
0.00235786
0.00238922
0.00235516
0.00238658
0.00235772
0.00235781
0.00235557
0.00234981
0.00231755
0.00234821
0.00234825
0.00231971
0.00231975
0.00235037
0.00231708
0.00234817
0.00234815
0.00231971
0.00231968
0.00234828
0.00231976
0.00231963
0.00234996
0.00231702
0.00234824
0.00231975
0.00231963
0.00231652
0.00231277
0.00227898
0.00231023
0.00231024
0.00228156
0.00228155
0.00231227
0.00227916
0.00231021
0.00231018
0.00228165
0.00228166
0.00231019
0.00228161
0.00228166
0.00231233
0.00227937
0.00231022
0.0022817
0.00228169
0.00227942
0.00227396
0.0022414
0.00227213
0.00227198
0.00224393
0.00224409
0.00227414
0.00224124
0.00227219
0.00227219
0.00224388
0.00224384
0.00227214
0.00224409
0.00224402
0.00227436
0.0022412
0.00227218
0.00224377
0.00224394
0.00224105
0.00223661
0.00220357
0.00223451
0.00223471
0.00220619
0.0022062
0.00223644
0.00220386
0.00223447
0.00223446
0.00220613
0.00220616
0.00223463
0.00220618
0.00220611
0.00223633
0.00220359
0.00223453
0.0022062
0.00220612
0.00220368
0.00219862
0.00216606
0.00219679
0.0021966
0.00216855
0.00216833
0.00219882
0.00216565
0.00219678
0.00219674
0.00216861
0.00216856
0.0021966
0.00216836
0.00216851
0.00219871
0.00216606
0.00219664
0.00216854
0.00216856
0.00216584
0.00216121
0.00212855
0.00215914
0.00215902
0.00213116
0.00213134
0.00216085
0.00212885
0.00215917
0.00215925
0.00213114
0.00213124
0.00215926
0.00213135
0.00213133
0.00216117
0.00212862
0.00215928
0.00213127
0.00213132
0.00212871
0.00212365
0.0020914
0.00212193
0.00212203
0.0020939
0.00209387
0.00212391
0.00209136
0.00212189
0.00212189
0.00209393
0.00209382
0.00212197
0.00209385
0.00209382
0.00212375
0.0020914
0.00212196
0.00209382
0.00209382
0.0020914
0.00208649
0.00205422
0.00208452
0.00208452
0.00205664
0.00205675
0.00208649
0.00205435
0.00208457
0.00208454
0.00205665
0.00205675
0.00208451
0.00205679
0.0020567
0.00208652
0.0020542
0.00208451
0.00205675
0.0020567
0.00205421
0.0020494
0.00201716
0.00204747
0.00204749
0.0020197
0.00201958
0.00204944
0.00201712
0.00204745
0.00204746
0.00201971
0.00201969
0.00204745
0.00201955
0.00201974
0.00204933
0.00201726
0.00204744
0.00201969
0.00201975
0.00201725
0.00201225
0.0019805
0.00201037
0.00201036
0.00198281
0.00198303
0.00201231
0.00198079
0.0020104
0.00201042
0.0019828
0.00198275
0.00201042
0.00198304
0.00198273
0.00201237
0.00198041
0.00201043
0.00198276
0.00198272
0.00198038
0.00197573
0.00194377
0.00197375
0.00197392
0.00194624
0.001946
0.00197595
0.00194348
0.00197373
0.00197363
0.00194625
0.00194637
0.00197363
0.001946
0.00194635
0.00197561
0.00194397
0.00197362
0.00194637
0.00194632
0.00194397
0.00193883
0.00190703
0.00193693
0.00193671
0.00190932
0.0019094
0.00193864
0.00190718
0.00193697
0.00193709
0.0019093
0.00190921
0.00193706
0.00190939
0.00190924
0.001939
0.00190688
0.00193706
0.00190921
0.00190926
0.00190693
0.00190225
0.00187106
0.00190025
0.00190038
0.00187319
0.00187323
0.00190239
0.00187109
0.00190022
0.00190012
0.00187318
0.00187317
0.00190016
0.00187323
0.00187317
0.00190211
0.00187108
0.00190017
0.00187316
0.00187315
0.00187107
0.00186622
0.00183437
0.00186413
0.00186411
0.00183671
0.00183671
0.00186622
0.00183438
0.00186413
0.00186417
0.00183672
0.00183683
0.00186416
0.00183669
0.0018368
0.0018663
0.00183441
0.00186415
0.00183684
0.00183681
0.00183442
0.00182958
0.00179842
0.00182759
0.00182763
0.00180052
0.00180045
0.00182959
0.00179835
0.00182759
0.00182762
0.00180054
0.00180044
0.00182764
0.00180049
0.00180043
0.00182956
0.00179833
0.00182764
0.00180041
0.00180043
0.00179831
0.00179362
0.00176226
0.00179154
0.00179146
0.00176448
0.00176457
0.00179358
0.00176234
0.00179154
0.00179147
0.00176443
0.0017645
0.00179144
0.00176454
0.00176452
0.00179355
0.00176234
0.00179145
0.00176453
0.00176451
0.00176235
0.00175748
0.00172656
0.00175544
0.00175556
0.00172862
0.00172852
0.00175753
0.00172647
0.00175541
0.00175549
0.00172868
0.00172863
0.00175554
0.00172853
0.0017286
0.00175757
0.00172647
0.00175552
0.00172861
0.00172861
0.00172648
0.00172179
0.0016907
0.00171974
0.00171963
0.00169288
0.00169298
0.00172173
0.00169081
0.00171978
0.00171968
0.00169285
0.00169286
0.00171964
0.00169298
0.0016929
0.00172169
0.0016908
0.00171966
0.00169287
0.0016929
0.00169079
0.00168594
0.00165522
0.00168389
0.001684
0.00165724
0.00165717
0.00168603
0.00165515
0.00168386
0.00168398
0.00165725
0.00165729
0.001684
0.00165718
0.00165725
0.00168606
0.00165515
0.00168398
0.00165728
0.00165723
0.00165516
0.00165048
0.0016197
0.00164843
0.00164834
0.00162181
0.00162186
0.00165041
0.00161973
0.00164843
0.00164835
0.00162183
0.00162176
0.00164834
0.00162182
0.00162181
0.00165038
0.00161974
0.00164835
0.00162175
0.00162182
0.00161974
0.00161495
0.00158436
0.00161287
0.00161294
0.0015864
0.00158636
0.00161498
0.00158438
0.00161292
0.00161298
0.00158639
0.00158646
0.00161298
0.00158642
0.00158641
0.00161502
0.00158435
0.00161298
0.00158648
0.00158642
0.00158435
0.00157964
0.00154912
0.00157764
0.00157762
0.00155119
0.00155126
0.00157967
0.0015491
0.00157761
0.00157755
0.0015512
0.00155112
0.00157757
0.00155116
0.00155113
0.00157959
0.00154911
0.00157757
0.00155109
0.00155112
0.00154909
0.00154439
0.00151392
0.00154233
0.00154235
0.00151593
0.00151586
0.00154435
0.00151395
0.00154237
0.00154239
0.00151594
0.00151603
0.00154235
0.00151596
0.00151603
0.00154442
0.00151397
0.00154235
0.00151608
0.00151604
0.001514
0.00150921
0.00147892
0.00150722
0.0015072
0.00148098
0.00148115
0.00150927
0.001479
0.00150717
0.00150718
0.00148092
0.00148092
0.00150728
0.00148109
0.00148095
0.00150923
0.00147891
0.00150726
0.00148093
0.00148091
0.00147891
0.00147423
0.00144407
0.0014722
0.00147232
0.00144604
0.00144591
0.00147424
0.0014439
0.00147222
0.00147224
0.00144615
0.00144615
0.00147218
0.00144586
0.00144606
0.00147423
0.00144408
0.00147219
0.00144613
0.00144616
0.00144404
0.00143937
0.00140917
0.00143736
0.00143724
0.00141126
0.00141127
0.00143924
0.00140926
0.00143743
0.00143738
0.00141117
0.00141113
0.00143735
0.00141131
0.00141115
0.00143937
0.00140911
0.00143743
0.00141113
0.00141108
0.00140912
0.00140448
0.00137445
0.00140255
0.00140259
0.0013765
0.00137649
0.00140458
0.00137448
0.00140247
0.00140247
0.00137648
0.00137655
0.00140249
0.00137653
0.00137666
0.00140444
0.00137453
0.00140241
0.00137661
0.00137664
0.0013746
0.00136979
0.00134
0.00136783
0.00136783
0.00134199
0.00134203
0.00136981
0.00133997
0.00136782
0.00136789
0.001342
0.00134197
0.00136799
0.00134194
0.00134186
0.00136986
0.00133993
0.001368
0.00134192
0.00134188
0.00133985
0.00133537
0.00130558
0.00133343
0.00133346
0.00130764
0.00130759
0.00133533
0.00130555
0.00133345
0.00133339
0.00130769
0.00130765
0.00133328
0.00130768
0.00130766
0.00133529
0.00130559
0.00133329
0.00130763
0.00130766
0.00130562
0.00130089
0.00127113
0.00129896
0.00129892
0.00127314
0.00127313
0.00130088
0.00127111
0.00129901
0.001299
0.00127314
0.00127318
0.00129905
0.00127311
0.00127313
0.00130093
0.00127115
0.00129906
0.00127318
0.00127314
0.00127111
0.00126654
0.0012376
0.00126468
0.00126468
0.00123955
0.00123956
0.00126652
0.00123761
0.00126467
0.00126471
0.00123953
0.00123954
0.00126462
0.00123952
0.00123949
0.00126655
0.00123758
0.00126462
0.00123953
0.00123948
0.00123756
0.00123303
0.00120302
0.00123114
0.00123117
0.00120517
0.00120519
0.00123307
0.00120305
0.00123111
0.00123111
0.00120516
0.00120516
0.00123115
0.00120522
0.00120524
0.00123302
0.00120304
0.00123114
0.0012052
0.00120525
0.00120308
0.00119829
0.00116807
0.00119643
0.00119645
0.00117019
0.0011702
0.00119832
0.00116806
0.00119642
0.00119643
0.0011702
0.0011702
0.00119648
0.00117019
0.00117019
0.00119831
0.00116806
0.00119648
0.00117019
0.00117018
0.00116804
0.00116337
0.00113387
0.00116147
0.00116148
0.00113567
0.00113567
0.00116335
0.00113385
0.00116148
0.00116148
0.00113569
0.00113569
0.00116145
0.00113566
0.00113564
0.00116336
0.00113387
0.00116145
0.00113567
0.00113563
0.00113383
0.00112928
0.00110062
0.00112722
0.00112722
0.00110235
0.00110234
0.00112927
0.00110062
0.00112723
0.00112724
0.00110236
0.00110236
0.0011272
0.00110236
0.00110237
0.00112928
0.00110063
0.00112719
0.00110236
0.00110237
0.00110064
0.00109628
0.00106815
0.00109434
0.00109434
0.00107031
0.00107032
0.00109629
0.00106816
0.00109435
0.00109434
0.0010703
0.00107029
0.00109437
0.00107032
0.00107036
0.0010963
0.00106814
0.00109436
0.00107031
0.00107036
0.00106818
0.00106374
0.0010354
0.00106219
0.0010622
0.0010376
0.0010376
0.00106375
0.0010354
0.00106217
0.00106217
0.00103759
0.00103759
0.00106221
0.00103759
0.00103759
0.00106373
0.00103539
0.00106222
0.00103759
0.00103759
0.00103539
0.00103086
0.00100097
0.00102923
0.00102923
0.0010032
0.0010032
0.00103086
0.00100097
0.00102922
0.00102922
0.00100319
0.00100319
0.00102921
0.00100319
0.00100319
0.00103085
0.00100096
0.00102922
0.00100319
0.00100319
0.00100097
0.000996044
0.000963212
0.000994133
0.000994134
0.000965551
0.000965548
0.000996049
0.00096321
0.000994098
0.000994133
0.00096555
0.000965548
0.000994129
0.000965546
0.000965542
0.000996044
0.00096321
0.000994131
0.000965547
0.000965542
0.000963205
0.000957819
0.000923799
0.00095559
0.000955588
0.000925745
0.000925745
0.000957817
0.000923799
0.000955591
0.00095559
0.000925747
0.000925749
0.000955582
0.000925746
0.000925745
0.000957819
0.0009238
0.000955582
0.000925747
0.000925743
0.000923799
0.000918441
0.000885099
0.000915881
0.000915878
0.0008869
0.000886901
0.000918439
0.000885101
0.000915882
0.000915884
0.000886901
0.000886903
0.000915883
0.000886903
0.000886906
0.000918443
0.000885101
0.000915879
0.000886902
0.000886905
0.000885104
0.000880068
0.000849586
0.000877623
0.000877625
0.000851316
0.000851318
0.00088007
0.000849588
0.000877624
0.000877626
0.000851317
0.000851319
0.000877629
0.000851316
0.000851318
0.00088007
0.000849588
0.000877629
0.000851317
0.000851319
0.000849592
0.000845119
0.000817799
0.000843096
0.000843096
0.000819801
0.0008198
0.000845122
0.000817799
0.000843096
0.000843097
0.0008198
0.000819799
0.000843098
0.0008198
0.000819801
0.000845121
0.000817798
0.000843099
0.0008198
0.000819801
0.000817799
0.000813663
0.000788259
0.00081223
0.000812229
0.000790175
0.000790175
0.000813663
0.000788259
0.000812229
0.000812228
0.000790175
0.000790175
0.000812229
0.000790175
0.000790175
0.000813663
0.000788259
0.00081223
0.000790175
0.000790175
0.000788259
0.000784381
0.000759426
0.000783009
0.000783009
0.000761277
0.000761277
0.00078438
0.000759426
0.000783009
0.000783009
0.000761277
0.000761278
0.000783009
0.000761276
0.000761277
0.000784381
0.000759427
0.000783009
0.000761277
0.000761277
0.000759426
0.000755374
0.000728471
0.000753803
0.000753804
0.000730394
0.000730393
0.000755373
0.000728471
0.000753804
0.000753804
0.000730394
0.000730394
0.000753803
0.000730393
0.000730394
0.000755374
0.000728471
0.000753804
0.000730394
0.000730394
0.00072847
0.000724035
0.000694947
0.000722248
0.000722248
0.000696951
0.000696951
0.000724035
0.000694947
0.000722247
0.000722248
0.000696951
0.000696951
0.000722248
0.000696951
0.000696951
0.000724036
0.000694947
0.000722248
0.000696951
0.000696951
0.000694947
0.000690236
0.000659803
0.000688291
0.000688291
0.000661851
0.000661851
0.000690235
0.000659804
0.000688291
0.000688291
0.000661851
0.000661851
0.000688291
0.00066185
0.000661851
0.000690236
0.000659803
0.000688291
0.00066185
0.000661851
0.000659803
0.000654953
0.000623877
0.000652925
0.000652925
0.000625941
0.000625941
0.000654952
0.000623877
0.000652925
0.000652925
0.000625941
0.000625941
0.000652926
0.000625941
0.000625941
0.000654952
0.000623877
0.000652926
0.000625941
0.000625941
0.000623876
0.000618963
0.000587606
0.000616897
0.000616897
0.000589676
0.000589676
0.000618963
0.000587606
0.000616897
0.000616897
0.000589676
0.000589676
0.000616897
0.000589676
0.000589677
0.000618963
0.000587605
0.000616897
0.000589676
0.000589676
0.000587605
0.000582667
0.000551212
0.000580584
0.000580584
0.000553286
0.000553286
0.000582667
0.000551213
0.000580584
0.000580584
0.000553286
0.000553286
0.000580584
0.000553286
0.000553286
0.000582667
0.000551212
0.000580584
0.000553286
0.000553286
0.000551212
0.000546268
0.000514785
0.000544183
0.000544183
0.00051686
0.00051686
0.000546268
0.000514785
0.000544183
0.000544183
0.00051686
0.00051686
0.000544183
0.00051686
0.00051686
0.000546268
0.000514785
0.000544183
0.00051686
0.00051686
0.000514785
0.000509836
0.00047834
0.000507749
0.000507749
0.000480416
0.000480416
0.000509836
0.000478341
0.000507749
0.000507749
0.000480416
0.000480416
0.000507749
0.000480416
0.000480416
0.000509836
0.00047834
0.000507749
0.000480416
0.000480416
0.00047834
0.000473393
0.000441902
0.000471306
0.000471306
0.000443978
0.000443978
0.000473392
0.000441902
0.000471306
0.000471306
0.000443978
0.000443978
0.000471306
0.000443978
0.000443978
0.000473393
0.000441902
0.000471306
0.000443978
0.000443978
0.000441902
0.000436954
0.000405457
0.000434867
0.000434867
0.000407532
0.000407532
0.000436954
0.000405457
0.000434867
0.000434867
0.000407532
0.000407532
0.000434867
0.000407532
0.000407532
0.000436954
0.000405457
0.000434867
0.000407532
0.000407532
0.000405457
0.000400508
0.000369017
0.000398421
0.000398421
0.000371092
0.000371092
0.000400508
0.000369017
0.000398421
0.000398421
0.000371092
0.000371092
0.000398422
0.000371092
0.000371092
0.000400508
0.000369017
0.000398421
0.000371092
0.000371092
0.000369017
0.000364069
0.000332574
0.000361983
0.000361983
0.000334648
0.000334648
0.000364069
0.000332574
0.000361983
0.000361983
0.000334648
0.000334648
0.000361983
0.000334648
0.000334649
0.000364069
0.000332574
0.000361983
0.000334648
0.000334648
0.000332574
0.000327625
0.00029613
0.000325538
0.000325538
0.000298206
0.000298206
0.000327625
0.000296131
0.000325538
0.000325538
0.000298205
0.000298206
0.000325538
0.000298206
0.000298206
0.000327625
0.00029613
0.000325538
0.000298206
0.000298206
0.00029613
0.000291182
0.000259689
0.000289096
0.000289096
0.000261763
0.000261763
0.000291182
0.000259689
0.000289096
0.000289096
0.000261763
0.000261763
0.000289096
0.000261763
0.000261763
0.000291182
0.000259688
0.000289096
0.000261763
0.000261763
0.000259689
0.000254739
0.000223244
0.000252654
0.000252654
0.000225317
0.000225317
0.000254738
0.000223244
0.000252654
0.000252654
0.000225317
0.000225317
0.000252654
0.000225317
0.000225317
0.000254739
0.000223244
0.000252654
0.000225317
0.000225317
0.000223244
0.000218293
0.000186804
0.00021621
0.00021621
0.000188876
0.000188876
0.000218293
0.000186804
0.00021621
0.00021621
0.000188876
0.000188876
0.000216211
0.000188876
0.000188876
0.000218293
0.000186803
0.00021621
0.000188876
0.000188876
0.000186804
0.000181848
0.000150363
0.000179768
0.000179768
0.000152432
0.000152432
0.000181847
0.000150363
0.000179768
0.000179768
0.000152432
0.000152432
0.000179768
0.000152432
0.000152432
0.000181847
0.000150363
0.000179768
0.000152432
0.000152432
0.000150363
0.000145399
0.000113921
0.000143328
0.000143328
0.000115986
0.000115986
0.000145399
0.000113921
0.000143328
0.000143328
0.000115986
0.000115986
0.000143328
0.000115986
0.000115986
0.000145399
0.000113921
0.000143328
0.000115986
0.000115986
0.000113921
0.000108938
7.74766e-05
0.000106883
0.000106883
7.95354e-05
7.95354e-05
0.000108938
7.74776e-05
0.000106883
0.000106883
7.95348e-05
7.95349e-05
0.000106883
7.95354e-05
7.95347e-05
0.000108938
7.74758e-05
0.000106883
7.95349e-05
7.95349e-05
7.7476e-05
7.24568e-05
4.10712e-05
7.04348e-05
7.04347e-05
4.31273e-05
4.31281e-05
7.24565e-05
4.10728e-05
7.04339e-05
7.04335e-05
4.31256e-05
4.31248e-05
7.0434e-05
4.31268e-05
4.31247e-05
7.24563e-05
4.10688e-05
7.04338e-05
4.31241e-05
4.31233e-05
4.10687e-05
3.60805e-05
8.52929e-06
3.42087e-05
3.42095e-05
1.15599e-05
1.15595e-05
3.60811e-05
8.5293e-06
3.42072e-05
3.42055e-05
1.15613e-05
1.15547e-05
3.42049e-05
1.156e-05
1.15532e-05
3.60779e-05
8.52586e-06
3.42042e-05
1.15581e-05
1.15584e-05
8.52466e-06
5.29257e-06
7.03598e-06
7.03559e-06
5.29341e-06
7.0366e-06
7.0322e-06
6.14751e-06
6.14715e-06
6.14627e-06
7.03139e-06
5.29118e-06
7.03512e-06
0.00353804
0.00354089
0.00353947
0.00353947
0.00356677
0.00354049
0.00357002
0.00354076
0.00356664
0.00354038
0.00354067
0.00356982
0.00355144
0.0035732
0.0035731
0.00351064
0.00352439
0.00352825
0.00350299
0.00350086
0.00350627
0.00351027
0.00352457
0.00352604
0.00350281
0.00352651
0.0035263
0.00352644
0.00349989
0.00349991
0.00349981
0.00349985
0.00351018
0.00352183
0.00352706
0.00351776
0.00352917
0.00350737
0.003518
0.00350045
0.00350608
0.00351008
0.00352692
0.00352164
0.00351757
0.00352903
0.00351788
0.00350712
0.00352791
0.00352784
0.00351496
0.00350725
0.0035072
0.00348302
0.00349722
0.00349708
0.00348097
0.00349478
0.00347995
0.00348294
0.00349712
0.00349704
0.00348095
0.00349089
0.00349079
0.00349084
0.00346273
0.00346274
0.0034627
0.00346271
0.00348079
0.00349569
0.00348935
0.00347996
0.0034941
0.00348127
0.00347996
0.00349431
0.00347993
0.00348075
0.00348925
0.00349561
0.00347999
0.00349402
0.00347991
0.00348119
0.00349736
0.00349744
0.0034784
0.00348169
0.00348164
0.0034406
0.00345523
0.00345614
0.00343925
0.0034541
0.00343833
0.00344053
0.00345525
0.00345627
0.00343923
0.00345271
0.00345269
0.00345269
0.00342011
0.00342012
0.00342009
0.0034201
0.00343933
0.00345482
0.00345076
0.00344025
0.00345382
0.00343978
0.00344026
0.00345411
0.00343833
0.00343934
0.00345077
0.00345486
0.00344031
0.00345382
0.00344027
0.00343973
0.00345562
0.00345557
0.00343763
0.00343952
0.00343954
0.00339423
0.00341059
0.00341206
0.00339273
0.0034099
0.00339221
0.00339416
0.00341057
0.0034121
0.00339273
0.00340851
0.00340849
0.0034085
0.0033724
0.00337239
0.00337237
0.00337239
0.00339331
0.00341044
0.0034068
0.00339498
0.00340988
0.00339345
0.00339496
0.00340987
0.00339221
0.00339332
0.0034068
0.00341047
0.00339507
0.00340988
0.00339501
0.00339343
0.00341048
0.00341065
0.00339172
0.00339305
0.00339291
0.0033451
0.00336222
0.00336358
0.00334387
0.00336179
0.00334358
0.00334504
0.00336222
0.00336361
0.00334387
0.00336017
0.00336015
0.00336017
0.00332354
0.00332355
0.00332352
0.00332355
0.00334466
0.00336223
0.00335868
0.00334642
0.00336184
0.00334457
0.00334641
0.00336179
0.00334358
0.00334467
0.00335868
0.0033622
0.00334647
0.00336184
0.00334645
0.0033446
0.00336199
0.0033622
0.00334313
0.00334394
0.00334399
0.00329615
0.00331334
0.00331431
0.00329526
0.00331309
0.00329502
0.00329609
0.00331337
0.00331438
0.00329522
0.00331143
0.0033114
0.00331143
0.00327538
0.00327538
0.00327536
0.00327539
0.00329605
0.00331335
0.00331001