/*--------------------------------*- C++ -*----------------------------------*\
| =========                 |                                                 |
| \\      /  F ield         | OpenFOAM: The Open Source CFD Toolbox           |
|  \\    /   O peration     | Version:  v1906                                 |
|   \\  /    A nd           | Web:      www.OpenFOAM.com                      |
|    \\/     M anipulation  |                                                 |
\*---------------------------------------------------------------------------*/
FoamFile
{
    version     2.0;
    format      ascii;
    class       volScalarField;
    location    "162.5";
    object      epsilon;
}
// * * * * * * * * * * * * * * * * * * * * * * * * * * * * * * * * * * * * * //

dimensions      [0 2 -3 0 0 0 0];


internalField   nonuniform List<scalar> 
171728
(
1.79303e-08
5.3843e-09
5.17017e-09
4.92446e-09
1.78881e-08
5.1148e-09
4.91046e-09
4.47978e-09
1.82999e-08
4.89523e-09
4.69571e-09
4.10346e-09
1.87284e-08
4.74245e-09
4.54367e-09
3.81288e-09
1.91628e-08
4.65817e-09
4.44944e-09
3.57364e-09
1.96264e-08
4.63456e-09
4.4104e-09
3.362e-09
2.01122e-08
4.6603e-09
4.43409e-09
3.18872e-09
2.06158e-08
4.75648e-09
4.52291e-09
3.0486e-09
2.11285e-08
4.92489e-09
4.67097e-09
2.94874e-09
2.16478e-08
5.16676e-09
4.8786e-09
2.87984e-09
2.21712e-08
5.48261e-09
5.15537e-09
2.86651e-09
2.26899e-08
5.86188e-09
5.50626e-09
2.91301e-09
2.32106e-08
6.32311e-09
5.92784e-09
3.04244e-09
2.37275e-08
6.88903e-09
6.44758e-09
3.26925e-09
2.42429e-08
7.58726e-09
7.06721e-09
3.6208e-09
2.47574e-08
8.46736e-09
7.79322e-09
4.14126e-09
2.52734e-08
9.60259e-09
8.73509e-09
4.91949e-09
2.58162e-08
1.10861e-08
1.00433e-08
6.13963e-09
2.63678e-08
1.30841e-08
1.1885e-08
8.11812e-09
2.69537e-08
1.58203e-08
1.44305e-08
1.14059e-08
2.76023e-08
1.96418e-08
1.79741e-08
1.69633e-08
2.82942e-08
2.50593e-08
2.28775e-08
2.61307e-08
2.90598e-08
3.18391e-08
2.95762e-08
4.08286e-08
3.006e-08
4.04505e-08
3.86567e-08
6.32545e-08
3.12613e-08
5.1596e-08
5.05895e-08
9.55972e-08
3.27421e-08
6.61623e-08
6.58049e-08
1.39394e-07
3.45899e-08
8.39484e-08
8.46561e-08
1.9547e-07
3.69598e-08
1.06254e-07
1.07535e-07
2.63841e-07
3.99723e-08
1.33675e-07
1.34396e-07
3.41778e-07
4.37671e-08
1.64575e-07
1.65053e-07
4.22512e-07
4.84235e-08
1.97572e-07
1.98621e-07
4.91787e-07
5.42174e-08
2.32652e-07
2.34269e-07
5.54597e-07
6.1789e-08
2.69575e-07
2.70705e-07
6.11633e-07
7.23576e-08
3.09506e-07
3.10037e-07
6.56585e-07
8.75034e-08
3.57542e-07
3.57952e-07
6.95097e-07
1.09009e-07
4.19272e-07
4.19584e-07
7.40596e-07
1.37591e-07
4.90947e-07
4.91151e-07
7.96038e-07
1.70473e-07
5.58391e-07
5.58543e-07
8.50183e-07
2.02512e-07
6.112e-07
6.11325e-07
8.94043e-07
2.27014e-07
6.43938e-07
6.44059e-07
9.22772e-07
2.40547e-07
6.58299e-07
6.58417e-07
9.35348e-07
2.46265e-07
6.63372e-07
6.63483e-07
9.39889e-07
2.48209e-07
6.64939e-07
6.65047e-07
9.41557e-07
2.48761e-07
6.65375e-07
6.65484e-07
9.42065e-07
2.48869e-07
6.65418e-07
6.65528e-07
9.42102e-07
2.48883e-07
6.65393e-07
6.65502e-07
9.41896e-07
2.48892e-07
6.65429e-07
6.65537e-07
9.42096e-07
2.4889e-07
6.65411e-07
6.65518e-07
9.42025e-07
2.48892e-07
6.65415e-07
6.65522e-07
9.42019e-07
2.48893e-07
6.65413e-07
6.65521e-07
9.41986e-07
2.48893e-07
6.65414e-07
6.65521e-07
9.42083e-07
2.48895e-07
6.65418e-07
6.65525e-07
9.41958e-07
2.48896e-07
6.65414e-07
6.65519e-07
9.42026e-07
2.48897e-07
6.65418e-07
6.65524e-07
9.42073e-07
2.48897e-07
6.65422e-07
6.65527e-07
9.42058e-07
2.48897e-07
6.65416e-07
6.65523e-07
9.41992e-07
2.48898e-07
6.65417e-07
6.65525e-07
9.41983e-07
2.48898e-07
6.6542e-07
6.65527e-07
9.41997e-07
2.48898e-07
6.65417e-07
6.65523e-07
9.42056e-07
2.48898e-07
6.65419e-07
6.65523e-07
9.42022e-07
2.48899e-07
6.65424e-07
6.65527e-07
9.4204e-07
2.48899e-07
6.65419e-07
6.65524e-07
9.42078e-07
2.48899e-07
6.65419e-07
6.65523e-07
9.41974e-07
2.48899e-07
6.65421e-07
6.65525e-07
9.41992e-07
2.48899e-07
6.65423e-07
6.65523e-07
9.4212e-07
2.489e-07
6.65419e-07
6.65525e-07
9.42091e-07
2.48899e-07
6.65418e-07
6.65526e-07
9.42025e-07
2.48899e-07
6.65421e-07
6.65522e-07
9.42004e-07
2.48899e-07
6.65422e-07
6.65525e-07
9.42007e-07
2.48898e-07
6.65419e-07
6.65523e-07
9.41999e-07
2.48898e-07
6.65418e-07
6.65519e-07
9.41976e-07
2.48897e-07
6.6542e-07
6.65522e-07
9.4196e-07
2.48896e-07
6.65417e-07
6.65521e-07
9.41959e-07
2.48895e-07
6.65416e-07
6.65519e-07
9.41951e-07
2.48895e-07
6.65415e-07
6.65517e-07
9.41944e-07
2.48895e-07
6.65414e-07
6.65517e-07
9.41938e-07
2.48894e-07
6.65412e-07
6.65516e-07
9.41929e-07
2.48894e-07
6.65411e-07
6.65513e-07
9.41912e-07
2.48894e-07
6.65411e-07
6.65513e-07
9.41909e-07
2.48894e-07
6.65411e-07
6.65515e-07
9.41913e-07
2.48893e-07
6.65411e-07
6.65514e-07
9.4191e-07
2.48893e-07
6.65412e-07
6.65514e-07
9.4191e-07
2.48893e-07
6.65414e-07
6.65518e-07
9.41919e-07
2.48893e-07
6.65415e-07
6.65519e-07
9.41928e-07
2.48893e-07
6.65417e-07
6.65519e-07
9.41914e-07
2.48893e-07
6.65423e-07
6.65525e-07
9.4189e-07
2.48893e-07
6.65428e-07
6.65531e-07
9.41897e-07
2.48893e-07
6.65434e-07
6.65536e-07
9.41922e-07
2.48893e-07
6.65442e-07
6.65544e-07
9.41933e-07
2.48893e-07
6.65454e-07
6.65554e-07
9.41916e-07
2.48894e-07
6.65469e-07
6.65568e-07
9.41895e-07
2.48895e-07
6.65491e-07
6.65591e-07
9.41898e-07
2.48894e-07
6.65514e-07
6.65616e-07
9.41881e-07
2.48493e-07
6.65284e-07
6.65379e-07
9.41565e-07
2.36083e-07
6.19782e-07
6.19797e-07
8.97552e-07
4.90786e-09
4.55065e-09
4.45578e-09
5.39227e-09
3.98464e-09
4.63379e-09
1.84054e-08
1.84827e-08
1.83993e-08
1.82844e-08
4.63543e-09
3.83954e-09
5.18631e-09
4.44599e-09
4.59979e-09
4.958e-09
4.85894e-09
4.49751e-09
5.27122e-09
5.24807e-09
5.03208e-09
5.01746e-09
5.34384e-09
4.90363e-09
4.68713e-09
5.4564e-09
4.51812e-09
5.24172e-09
4.53981e-09
5.17987e-09
4.35425e-09
5.13883e-09
4.76692e-09
5.2927e-09
4.9749e-09
5.06326e-09
4.54898e-09
4.42942e-09
4.13371e-09
4.95724e-09
4.94595e-09
4.76506e-09
4.76073e-09
4.82526e-09
4.47558e-09
4.4686e-09
5.17326e-09
4.35179e-09
4.99411e-09
4.30055e-09
4.94477e-09
4.16793e-09
4.69695e-09
4.38816e-09
4.99142e-09
4.74463e-09
4.80365e-09
4.16271e-09
4.07897e-09
3.86133e-09
4.71051e-09
4.70873e-09
4.57145e-09
4.57404e-09
4.41085e-09
4.13778e-09
4.32169e-09
4.94198e-09
4.24897e-09
4.81026e-09
4.13057e-09
4.77326e-09
4.03842e-09
4.32823e-09
4.08121e-09
4.74936e-09
4.57694e-09
4.61048e-09
3.85882e-09
3.81786e-09
3.64112e-09
4.53215e-09
4.53571e-09
4.43738e-09
4.43796e-09
4.0849e-09
3.87514e-09
4.23047e-09
4.7731e-09
4.18737e-09
4.68702e-09
4.0144e-09
4.67078e-09
3.96022e-09
4.03218e-09
3.84065e-09
4.57139e-09
4.46787e-09
4.47871e-09
3.6158e-09
3.60246e-09
3.45421e-09
4.41209e-09
4.41292e-09
4.36409e-09
4.35041e-09
3.83212e-09
3.67074e-09
4.18049e-09
4.66307e-09
4.18463e-09
4.62359e-09
3.94739e-09
4.63445e-09
3.93045e-09
3.79982e-09
3.65261e-09
4.45244e-09
4.41226e-09
4.39986e-09
3.39927e-09
3.42271e-09
3.30443e-09
4.35557e-09
4.34137e-09
4.35899e-09
4.33061e-09
3.63404e-09
3.48211e-09
4.19234e-09
4.61652e-09
4.24342e-09
4.62211e-09
3.93182e-09
4.65046e-09
3.95521e-09
3.61973e-09
3.49283e-09
4.38629e-09
4.42446e-09
4.38438e-09
3.21925e-09
3.27681e-09
3.17166e-09
4.36628e-09
4.33279e-09
4.41265e-09
4.35975e-09
3.44888e-09
3.31683e-09
4.26843e-09
4.63138e-09
4.36649e-09
4.67947e-09
3.97227e-09
4.72989e-09
4.04156e-09
3.46379e-09
3.3616e-09
4.39031e-09
4.49838e-09
4.4384e-09
3.07e-09
3.14879e-09
3.0721e-09
4.43346e-09
4.37698e-09
4.52639e-09
4.441e-09
3.28873e-09
3.18078e-09
4.40645e-09
4.706e-09
4.54671e-09
4.81008e-09
4.07166e-09
4.88157e-09
4.18448e-09
3.33969e-09
3.2655e-09
4.46443e-09
4.63346e-09
4.56123e-09
2.9591e-09
3.06271e-09
3.01863e-09
4.56313e-09
4.46958e-09
4.70328e-09
4.59409e-09
3.16822e-09
3.09627e-09
4.59949e-09
4.85385e-09
4.78012e-09
5.00849e-09
4.22904e-09
5.10439e-09
4.39135e-09
3.25617e-09
3.21057e-09
4.60052e-09
4.8262e-09
4.74424e-09
2.88689e-09
3.01495e-09
3.01272e-09
4.75619e-09
4.64569e-09
4.94052e-09
4.83898e-09
3.08943e-09
3.07665e-09
4.84776e-09
5.06527e-09
5.08318e-09
5.26742e-09
4.45229e-09
5.40282e-09
4.66565e-09
3.20799e-09
3.21214e-09
4.79851e-09
5.08474e-09
4.989e-09
2.86197e-09
3.01708e-09
3.06701e-09
5.00988e-09
4.91453e-09
5.24735e-09
5.1734e-09
3.08108e-09
3.11707e-09
5.16988e-09
5.34282e-09
5.46417e-09
5.59847e-09
4.74562e-09
5.76562e-09
5.01264e-09
3.21712e-09
3.2786e-09
5.06133e-09
5.41662e-09
5.30606e-09
2.90126e-09
3.08063e-09
3.18982e-09
5.33391e-09
5.27131e-09
5.62987e-09
5.59897e-09
3.12893e-09
3.23099e-09
5.57391e-09
5.69446e-09
5.93216e-09
6.00257e-09
5.11334e-09
6.20418e-09
5.44306e-09
3.29583e-09
3.41369e-09
5.39849e-09
5.81954e-09
5.70432e-09
3.01268e-09
3.21976e-09
3.39642e-09
5.73969e-09
5.72191e-09
6.11034e-09
6.12854e-09
3.25968e-09
3.42304e-09
6.06296e-09
6.11579e-09
6.4952e-09
6.48784e-09
5.56508e-09
6.74294e-09
5.97501e-09
3.44575e-09
3.62234e-09
5.81582e-09
6.315e-09
6.19148e-09
3.21713e-09
3.44843e-09
3.71235e-09
6.24542e-09
6.27928e-09
6.70783e-09
6.78794e-09
3.47066e-09
3.70984e-09
6.65054e-09
6.62229e-09
7.16044e-09
7.07032e-09
6.12314e-09
7.40521e-09
6.62034e-09
3.67385e-09
3.91538e-09
6.32875e-09
6.91182e-09
6.78462e-09
3.53634e-09
3.79547e-09
4.1813e-09
6.87757e-09
6.97323e-09
7.4511e-09
7.59189e-09
3.7859e-09
4.14462e-09
7.34734e-09
7.23402e-09
7.96518e-09
7.78403e-09
6.80485e-09
8.23677e-09
7.41529e-09
3.99456e-09
4.34183e-09
6.95166e-09
7.60295e-09
7.51283e-09
4.00762e-09
4.31369e-09
4.88059e-09
7.66691e-09
7.82636e-09
8.40708e-09
8.62165e-09
4.2711e-09
4.82971e-09
8.19761e-09
7.99526e-09
8.99656e-09
8.7094e-09
7.64279e-09
9.29744e-09
8.41961e-09
4.47008e-09
4.99784e-09
7.72147e-09
8.47986e-09
8.43341e-09
4.70811e-09
5.09145e-09
5.97068e-09
8.68162e-09
8.91901e-09
9.66806e-09
9.95522e-09
5.03837e-09
5.93304e-09
9.29079e-09
8.98279e-09
1.03246e-08
9.94177e-09
8.70715e-09
1.06782e-08
9.70995e-09
5.20099e-09
6.00281e-09
8.70615e-09
9.68089e-09
9.6646e-09
5.7964e-09
6.31539e-09
7.73614e-09
1.00477e-08
1.0358e-08
1.13813e-08
1.17292e-08
6.27679e-09
7.73898e-09
1.07287e-08
1.03137e-08
1.2124e-08
1.16247e-08
1.00975e-08
1.25377e-08
1.14361e-08
6.33179e-09
7.66037e-09
1.00364e-08
1.13665e-08
1.13438e-08
7.55599e-09
8.29507e-09
1.06676e-08
1.19037e-08
1.22656e-08
1.37628e-08
1.41476e-08
8.3061e-09
1.07401e-08
1.2667e-08
1.21487e-08
1.45911e-08
1.39601e-08
1.19609e-08
1.50541e-08
1.38108e-08
8.20453e-09
1.04695e-08
1.18626e-08
1.37206e-08
1.36841e-08
1.04843e-08
1.15994e-08
1.57032e-08
1.44905e-08
1.48818e-08
1.70884e-08
1.74954e-08
1.16805e-08
1.58273e-08
1.53531e-08
1.46773e-08
1.80506e-08
1.72697e-08
1.4535e-08
1.85721e-08
1.71205e-08
1.13637e-08
1.52919e-08
1.44003e-08
1.69945e-08
1.69595e-08
1.54523e-08
1.72116e-08
2.41335e-08
1.81006e-08
1.85218e-08
2.1702e-08
2.21022e-08
1.73463e-08
2.44774e-08
1.91018e-08
1.82674e-08
2.28725e-08
2.17588e-08
1.81291e-08
2.35747e-08
2.17079e-08
1.67782e-08
2.33756e-08
1.7957e-08
2.15053e-08
2.14906e-08
2.37609e-08
2.65535e-08
3.77737e-08
2.31187e-08
2.34981e-08
2.81361e-08
2.84191e-08
2.68946e-08
3.78518e-08
2.43412e-08
2.31617e-08
2.95729e-08
2.81078e-08
2.31067e-08
3.00137e-08
2.80032e-08
2.57024e-08
3.67758e-08
2.28764e-08
2.77232e-08
2.77532e-08
3.71652e-08
4.15189e-08
5.91093e-08
3.00583e-08
3.03171e-08
3.66357e-08
3.70604e-08
4.143e-08
5.78984e-08
3.16712e-08
2.99642e-08
3.88718e-08
3.64022e-08
2.99e-08
3.80932e-08
3.65291e-08
4.0398e-08
5.71687e-08
2.96362e-08
3.61419e-08
3.62442e-08
5.79279e-08
6.44732e-08
8.92131e-08
3.91435e-08
3.96941e-08
4.77495e-08
4.87936e-08
6.31393e-08
8.83164e-08
4.15387e-08
3.89195e-08
5.02823e-08
4.76734e-08
3.90638e-08
4.8521e-08
4.77028e-08
6.2437e-08
8.72856e-08
3.87941e-08
4.73267e-08
4.75195e-08
8.8273e-08
9.64137e-08
1.30145e-07
5.1015e-08
5.22668e-08
6.23425e-08
6.40937e-08
9.57244e-08
1.3044e-07
5.34457e-08
5.09851e-08
6.38061e-08
6.22173e-08
5.09723e-08
6.22478e-08
6.20982e-08
9.46e-08
1.28969e-07
5.0822e-08
6.16999e-08
6.20493e-08
1.29747e-07
1.39864e-07
1.85448e-07
6.66317e-08
6.84378e-08
8.09563e-08
8.26792e-08
1.40191e-07
1.83814e-07
6.75949e-08
6.63811e-08
8.03687e-08
8.00876e-08
6.62343e-08
7.91519e-08
8.0151e-08
1.38698e-07
1.82953e-07
6.62072e-08
7.95706e-08
8.01619e-08
1.83508e-07
1.97785e-07
2.5254e-07
8.61931e-08
8.78294e-08
1.03248e-07
1.04117e-07
1.95486e-07
2.47761e-07
8.51829e-08
8.50906e-08
1.01267e-07
1.01426e-07
8.53218e-08
1.00203e-07
1.02334e-07
1.94865e-07
2.48762e-07
8.53557e-08
1.01459e-07
1.02392e-07
2.49654e-07
2.66687e-07
3.28203e-07
1.0939e-07
1.09737e-07
1.29299e-07
1.27739e-07
2.61534e-07
3.21796e-07
1.0718e-07
1.07342e-07
1.26759e-07
1.26723e-07
1.08485e-07
1.26409e-07
1.28733e-07
2.62921e-07
3.24733e-07
1.08527e-07
1.27318e-07
1.28744e-07
3.25791e-07
3.43908e-07
4.07615e-07
1.36435e-07
1.34313e-07
1.59185e-07
1.55906e-07
3.37458e-07
4.03015e-07
1.33884e-07
1.33747e-07
1.56584e-07
1.56249e-07
1.36103e-07
1.5664e-07
1.59252e-07
3.4044e-07
4.04938e-07
1.36105e-07
1.57081e-07
1.59276e-07
4.07078e-07
4.23207e-07
4.80956e-07
1.67193e-07
1.63594e-07
1.92351e-07
1.87856e-07
4.19041e-07
4.78156e-07
1.64469e-07
1.64121e-07
1.88752e-07
1.88613e-07
1.67118e-07
1.89158e-07
1.90798e-07
4.20757e-07
4.79435e-07
1.67233e-07
1.9001e-07
1.91586e-07
4.7783e-07
4.95311e-07
5.44034e-07
2.0105e-07
1.96337e-07
2.27634e-07
2.23019e-07
4.92741e-07
5.43213e-07
1.97073e-07
1.97124e-07
2.22864e-07
2.23813e-07
1.98793e-07
2.23697e-07
2.23911e-07
4.94027e-07
5.44903e-07
1.9987e-07
2.25249e-07
2.25531e-07
5.41277e-07
5.56879e-07
5.99251e-07
2.36538e-07
2.32211e-07
2.63226e-07
2.60182e-07
5.56479e-07
5.99948e-07
2.31777e-07
2.3301e-07
2.59288e-07
2.60911e-07
2.32778e-07
2.60194e-07
2.60431e-07
5.58134e-07
6.00657e-07
2.34407e-07
2.61518e-07
2.61711e-07
5.99492e-07
6.1108e-07
6.4569e-07
2.7223e-07
2.69615e-07
3.00646e-07
2.99009e-07
6.11837e-07
6.46048e-07
2.6872e-07
2.70289e-07
2.98316e-07
2.99465e-07
2.69891e-07
2.99018e-07
2.99407e-07
6.12275e-07
6.45801e-07
2.71006e-07
2.99636e-07
3.00075e-07
6.46604e-07
6.55737e-07
6.84926e-07
3.10918e-07
3.0951e-07
3.45407e-07
3.44515e-07
6.55987e-07
6.84779e-07
3.08905e-07
3.099e-07
3.44095e-07
3.44743e-07
3.0991e-07
3.4442e-07
3.44768e-07
6.55707e-07
6.84752e-07
3.10458e-07
3.44842e-07
3.45036e-07
6.85373e-07
6.94741e-07
7.29113e-07
3.58451e-07
3.57699e-07
4.03165e-07
4.02756e-07
6.94568e-07
7.28886e-07
3.57326e-07
3.57894e-07
4.02478e-07
4.02915e-07
3.57877e-07
4.02512e-07
4.02777e-07
6.94572e-07
7.29078e-07
3.58072e-07
4.0285e-07
4.02791e-07
7.2918e-07
7.40565e-07
7.83651e-07
4.19856e-07
4.19538e-07
4.73205e-07
4.73099e-07
7.40348e-07
7.83489e-07
4.19286e-07
4.19694e-07
4.7287e-07
4.73225e-07
4.19536e-07
4.72824e-07
4.73077e-07
7.40538e-07
7.83715e-07
4.19508e-07
4.73046e-07
4.72969e-07
7.83696e-07
7.95997e-07
8.3892e-07
4.91289e-07
4.9123e-07
5.42902e-07
5.42926e-07
7.95853e-07
8.3881e-07
4.91008e-07
4.91342e-07
5.42712e-07
5.43001e-07
4.91211e-07
5.42653e-07
5.42928e-07
7.96058e-07
8.39004e-07
4.91089e-07
5.42811e-07
5.42783e-07
8.39004e-07
8.50109e-07
8.84911e-07
5.58624e-07
5.58658e-07
5.99879e-07
5.99929e-07
8.50007e-07
8.8481e-07
5.58457e-07
5.58727e-07
5.99745e-07
5.99987e-07
5.58667e-07
5.99685e-07
5.9995e-07
8.50182e-07
8.84983e-07
5.58525e-07
5.99813e-07
5.99814e-07
8.84999e-07
8.93966e-07
9.16683e-07
6.11387e-07
6.11437e-07
6.37945e-07
6.37999e-07
8.93871e-07
9.16592e-07
6.11263e-07
6.11493e-07
6.37831e-07
6.38047e-07
6.11458e-07
6.37769e-07
6.38025e-07
8.94026e-07
9.16742e-07
6.1133e-07
6.37888e-07
6.379e-07
9.16772e-07
9.22688e-07
9.31849e-07
6.44109e-07
6.44164e-07
6.56074e-07
6.56134e-07
9.22602e-07
9.31761e-07
6.44004e-07
6.44208e-07
6.55974e-07
6.56172e-07
6.44189e-07
6.55909e-07
6.5616e-07
9.22739e-07
9.31902e-07
6.44071e-07
6.56028e-07
6.56045e-07
9.31937e-07
9.35258e-07
9.37306e-07
6.58454e-07
6.58512e-07
6.62735e-07
6.62791e-07
9.35178e-07
9.37226e-07
6.58367e-07
6.58553e-07
6.62646e-07
6.62831e-07
6.58541e-07
6.62579e-07
6.62818e-07
9.35308e-07
9.37355e-07
6.58427e-07
6.6269e-07
6.62708e-07
9.3739e-07
9.398e-07
9.39322e-07
6.63521e-07
6.63576e-07
6.64854e-07
6.64909e-07
9.39724e-07
9.39241e-07
6.63436e-07
6.63618e-07
6.64768e-07
6.64952e-07
6.63604e-07
6.64704e-07
6.64938e-07
9.39846e-07
9.39369e-07
6.63495e-07
6.64812e-07
6.64831e-07
9.39405e-07
9.41471e-07
9.3988e-07
6.65084e-07
6.6514e-07
6.65467e-07
6.65522e-07
9.41394e-07
9.39797e-07
6.65001e-07
6.65183e-07
6.65382e-07
6.65564e-07
6.65168e-07
6.65317e-07
6.6555e-07
9.41515e-07
9.39922e-07
6.65062e-07
6.65425e-07
6.65444e-07
9.39958e-07
9.41983e-07
9.39978e-07
6.65522e-07
6.65577e-07
6.65574e-07
6.65629e-07
9.41904e-07
9.39893e-07
6.65439e-07
6.65619e-07
6.6549e-07
6.65671e-07
6.65605e-07
6.65424e-07
6.65657e-07
9.42023e-07
9.40019e-07
6.65499e-07
6.65533e-07
6.65551e-07
9.40057e-07
9.42018e-07
9.39782e-07
6.65566e-07
6.65621e-07
6.65545e-07
6.65598e-07
9.41938e-07
9.39699e-07
6.65483e-07
6.65663e-07
6.65459e-07
6.65641e-07
6.65649e-07
6.65393e-07
6.65627e-07
9.42059e-07
9.39827e-07
6.65543e-07
6.65503e-07
6.65521e-07
9.39862e-07
9.41812e-07
9.39936e-07
6.65543e-07
6.65596e-07
6.65568e-07
6.6562e-07
9.41733e-07
9.39853e-07
6.65457e-07
6.65639e-07
6.6548e-07
6.65663e-07
6.65625e-07
6.65416e-07
6.6565e-07
9.41855e-07
9.39979e-07
6.65518e-07
6.65525e-07
6.65544e-07
9.40018e-07
9.42006e-07
9.39946e-07
6.65579e-07
6.65631e-07
6.65576e-07
6.65626e-07
9.4193e-07
9.39858e-07
6.65492e-07
6.65674e-07
6.65486e-07
6.65668e-07
6.6566e-07
6.65421e-07
6.65654e-07
9.42051e-07
9.39979e-07
6.65554e-07
6.65528e-07
6.65548e-07
9.40013e-07
9.4196e-07
9.3983e-07
6.65565e-07
6.65614e-07
6.6556e-07
6.65609e-07
9.41873e-07
9.39753e-07
6.65475e-07
6.65655e-07
6.65468e-07
6.6565e-07
6.65642e-07
6.65404e-07
6.65637e-07
9.41985e-07
9.39883e-07
6.65535e-07
6.65512e-07
6.65532e-07
9.39925e-07
9.41922e-07
9.39917e-07
6.65566e-07
6.65614e-07
6.65575e-07
6.6562e-07
9.4185e-07
9.39822e-07
6.65474e-07
6.65657e-07
6.65482e-07
6.65663e-07
6.65643e-07
6.65417e-07
6.65649e-07
9.41971e-07
9.39945e-07
6.6554e-07
6.65523e-07
6.65545e-07
9.39979e-07
9.41918e-07
9.39913e-07
6.65569e-07
6.65614e-07
6.65571e-07
6.65617e-07
9.41829e-07
9.39837e-07
6.65476e-07
6.65658e-07
6.65476e-07
6.65659e-07
6.65644e-07
6.65412e-07
6.65646e-07
9.41946e-07
9.39966e-07
6.65539e-07
6.65519e-07
6.65539e-07
9.40003e-07
9.41991e-07
9.39842e-07
6.65569e-07
6.65615e-07
6.65572e-07
6.65617e-07
9.41918e-07
9.3975e-07
6.65475e-07
6.65657e-07
6.65476e-07
6.65661e-07
6.65644e-07
6.65415e-07
6.65646e-07
9.4204e-07
9.39872e-07
6.65538e-07
6.65522e-07
6.65542e-07
9.39913e-07
9.41875e-07
9.39952e-07
6.65572e-07
6.65616e-07
6.65577e-07
6.6562e-07
9.41792e-07
9.39862e-07
6.65475e-07
6.6566e-07
6.65476e-07
6.6566e-07
6.65646e-07
6.65415e-07
6.65647e-07
9.41913e-07
9.39969e-07
6.65542e-07
6.65521e-07
6.65541e-07
9.40011e-07
9.4197e-07
9.39936e-07
6.65573e-07
6.65615e-07
6.65581e-07
6.65623e-07
9.41877e-07
9.3986e-07
6.65475e-07
6.65658e-07
6.65479e-07
6.65666e-07
6.65644e-07
6.6542e-07
6.65652e-07
9.41975e-07
9.39992e-07
6.65538e-07
6.65526e-07
6.65545e-07
9.40026e-07
9.41996e-07
9.39876e-07
6.65579e-07
6.6562e-07
6.65579e-07
6.65621e-07
9.41912e-07
9.39827e-07
6.65478e-07
6.65661e-07
6.65477e-07
6.65664e-07
6.65647e-07
6.65417e-07
6.65648e-07
9.42024e-07
9.39969e-07
6.65542e-07
6.65522e-07
6.6554e-07
9.3998e-07
9.41951e-07
9.39851e-07
6.65579e-07
6.65621e-07
6.65581e-07
6.6562e-07
9.41902e-07
9.39774e-07
6.65477e-07
6.65663e-07
6.65478e-07
6.65665e-07
6.65649e-07
6.65414e-07
6.65646e-07
9.42031e-07
9.39924e-07
6.65541e-07
6.65521e-07
6.65539e-07
9.39927e-07
9.41891e-07
9.39904e-07
6.65581e-07
6.6562e-07
6.65581e-07
6.65619e-07
9.41849e-07
9.39765e-07
6.65477e-07
6.65664e-07
6.65478e-07
6.65661e-07
6.65645e-07
6.65418e-07
6.65651e-07
9.41997e-07
9.39904e-07
6.65538e-07
6.65524e-07
6.65542e-07
9.3995e-07
9.41915e-07
9.39943e-07
6.6558e-07
6.65619e-07
6.65584e-07
6.65621e-07
9.41809e-07
9.3981e-07
6.65477e-07
6.65661e-07
6.65477e-07
6.65661e-07
6.65648e-07
6.65419e-07
6.6565e-07
9.41966e-07
9.39913e-07
6.6554e-07
6.65524e-07
6.65542e-07
9.39978e-07
9.41958e-07
9.39946e-07
6.65581e-07
6.65618e-07
6.65586e-07
6.65623e-07
9.41828e-07
9.39836e-07
6.65475e-07
6.6566e-07
6.6548e-07
6.65664e-07
6.65649e-07
6.65418e-07
6.65652e-07
9.41965e-07
9.39909e-07
6.65541e-07
6.65523e-07
6.65543e-07
9.40031e-07
9.41985e-07
9.39932e-07
6.65583e-07
6.65619e-07
6.65586e-07
6.65625e-07
9.41854e-07
9.39855e-07
6.65477e-07
6.65662e-07
6.65478e-07
6.65664e-07
6.65648e-07
6.65422e-07
6.65652e-07
9.41953e-07
9.39936e-07
6.6554e-07
6.65526e-07
6.65541e-07
9.39974e-07
9.41989e-07
9.39922e-07
6.65585e-07
6.65621e-07
6.65586e-07
6.65623e-07
9.41877e-07
9.39858e-07
6.65479e-07
6.65662e-07
6.65477e-07
6.65663e-07
6.6565e-07
6.6542e-07
6.65653e-07
9.4196e-07
9.39959e-07
6.65538e-07
6.65526e-07
6.65544e-07
9.40033e-07
9.41989e-07
9.39874e-07
6.65586e-07
6.65623e-07
6.65584e-07
6.65619e-07
9.41927e-07
9.39765e-07
6.65477e-07
6.65663e-07
6.65476e-07
6.65661e-07
6.65652e-07
6.65416e-07
6.65648e-07
9.41992e-07
9.39902e-07
6.65541e-07
6.65521e-07
6.65537e-07
9.40001e-07
9.41954e-07
9.39848e-07
6.65584e-07
6.65619e-07
6.65582e-07
6.65621e-07
9.41832e-07
9.39834e-07
6.65476e-07
6.6566e-07
6.65474e-07
6.65663e-07
6.65648e-07
6.6542e-07
6.6565e-07
9.4194e-07
9.39931e-07
6.65538e-07
6.65523e-07
6.65536e-07
9.39917e-07
9.41854e-07
9.39999e-07
6.65579e-07
6.65619e-07
6.65587e-07
6.65624e-07
9.41865e-07
9.39893e-07
6.65471e-07
6.65661e-07
6.65481e-07
6.65663e-07
6.65649e-07
6.65423e-07
6.65652e-07
9.41948e-07
9.39932e-07
6.65535e-07
6.65524e-07
6.65543e-07
9.39994e-07
9.42011e-07
9.39892e-07
6.65584e-07
6.6562e-07
6.65584e-07
6.65621e-07
9.41954e-07
9.39796e-07
6.65479e-07
6.65662e-07
6.65477e-07
6.65664e-07
6.6565e-07
6.65419e-07
6.65651e-07
9.4196e-07
9.3991e-07
6.65536e-07
6.65523e-07
6.65542e-07
9.40082e-07
9.41971e-07
9.39844e-07
6.65583e-07
6.6562e-07
6.65585e-07
6.6562e-07
9.41888e-07
9.39773e-07
6.65477e-07
6.65663e-07
6.65478e-07
6.65665e-07
6.65651e-07
6.65417e-07
6.65648e-07
9.41936e-07
9.39958e-07
6.65541e-07
6.65527e-07
6.6554e-07
9.39998e-07
9.41899e-07
9.39883e-07
6.65585e-07
6.6562e-07
6.65585e-07
6.6562e-07
9.4183e-07
9.39836e-07
6.65478e-07
6.65663e-07
6.65476e-07
6.65664e-07
6.65648e-07
6.6542e-07
6.65649e-07
9.41967e-07
9.39982e-07
6.6554e-07
6.65522e-07
6.65538e-07
9.39938e-07
9.41904e-07
9.39935e-07
6.65585e-07
6.6562e-07
6.65588e-07
6.65622e-07
9.41854e-07
9.39858e-07
6.65476e-07
6.65664e-07
6.65476e-07
6.65661e-07
6.65648e-07
6.6542e-07
6.65651e-07
9.42006e-07
9.39971e-07
6.65538e-07
6.6552e-07
6.65536e-07
9.39938e-07
9.41942e-07
9.39962e-07
6.65587e-07
6.65622e-07
6.65588e-07
6.65622e-07
9.41888e-07
9.39842e-07
6.65475e-07
6.65661e-07
6.65478e-07
6.65663e-07
6.6565e-07
6.65418e-07
6.65651e-07
9.42014e-07
9.39935e-07
6.65535e-07
6.65523e-07
6.65541e-07
9.39948e-07
9.41997e-07
9.39914e-07
6.65588e-07
6.65622e-07
6.65587e-07
6.65618e-07
9.419e-07
9.39769e-07
6.65477e-07
6.65663e-07
6.65476e-07
6.65663e-07
6.65651e-07
6.65415e-07
6.6565e-07
9.41998e-07
9.39891e-07
6.65537e-07
6.65519e-07
6.65538e-07
9.39938e-07
9.41976e-07
9.39881e-07
6.65586e-07
6.65617e-07
6.65589e-07
6.65626e-07
9.41822e-07
9.39854e-07
6.65477e-07
6.65662e-07
6.65474e-07
6.65664e-07
6.65651e-07
6.65417e-07
6.65649e-07
9.41909e-07
9.4e-07
6.65539e-07
6.65518e-07
6.65537e-07
9.39918e-07
9.41942e-07
9.39863e-07
6.65589e-07
6.65619e-07
6.65588e-07
6.65622e-07
9.41842e-07
9.39919e-07
6.65476e-07
6.65664e-07
6.65472e-07
6.65662e-07
6.6565e-07
6.65416e-07
6.65648e-07
9.41995e-07
9.39984e-07
6.65538e-07
6.6552e-07
6.65537e-07
9.39917e-07
9.41884e-07
9.39984e-07
6.65588e-07
6.65625e-07
6.65588e-07
6.65618e-07
9.41974e-07
9.39812e-07
6.65472e-07
6.65663e-07
6.65476e-07
6.65661e-07
6.65648e-07
6.65412e-07
6.65649e-07
9.42009e-07
9.39974e-07
6.65538e-07
6.65517e-07
6.65537e-07
9.39925e-07
9.41981e-07
9.39965e-07
6.65588e-07
6.6562e-07
6.65588e-07
6.65619e-07
9.41899e-07
9.39785e-07
6.65476e-07
6.65663e-07
6.65474e-07
6.6566e-07
6.65649e-07
6.65412e-07
6.65648e-07
9.42003e-07
9.3994e-07
6.65539e-07
6.65515e-07
6.65537e-07
9.39921e-07
9.42043e-07
9.39846e-07
6.65588e-07
6.65619e-07
6.65585e-07
6.6562e-07
9.41851e-07
9.39791e-07
6.65476e-07
6.65661e-07
6.65472e-07
6.6566e-07
6.65648e-07
6.65411e-07
6.65648e-07
9.41997e-07
9.39912e-07
6.6554e-07
6.65514e-07
6.65535e-07
9.39917e-07
9.41909e-07
9.39897e-07
6.65585e-07
6.6562e-07
6.65584e-07
6.65617e-07
9.4184e-07
9.39802e-07
6.65472e-07
6.6566e-07
6.65472e-07
6.6566e-07
6.65651e-07
6.65409e-07
6.65645e-07
9.41969e-07
9.39914e-07
6.65539e-07
6.65512e-07
6.65534e-07
9.39911e-07
9.41916e-07
9.39922e-07
6.65585e-07
6.6562e-07
6.65581e-07
6.65613e-07
9.41846e-07
9.39812e-07
6.65473e-07
6.65661e-07
6.6547e-07
6.65658e-07
6.65648e-07
6.65407e-07
6.65644e-07
9.4195e-07
9.39942e-07
6.65537e-07
6.6551e-07
6.65532e-07
9.39902e-07
9.41934e-07
9.39955e-07
6.65583e-07
6.65616e-07
6.6558e-07
6.65612e-07
9.41854e-07
9.3982e-07
6.6547e-07
6.65657e-07
6.6547e-07
6.65658e-07
6.65646e-07
6.65405e-07
6.65641e-07
9.41958e-07
9.39968e-07
6.65535e-07
6.65507e-07
6.65529e-07
9.39896e-07
9.4198e-07
9.39934e-07
6.65584e-07
6.65614e-07
6.65577e-07
6.65609e-07
9.41863e-07
9.3981e-07
6.65472e-07
6.6566e-07
6.65464e-07
6.65653e-07
6.65644e-07
6.65403e-07
6.65639e-07
9.4198e-07
9.39979e-07
6.65531e-07
6.65506e-07
6.65528e-07
9.39901e-07
9.41982e-07
9.3991e-07
6.65582e-07
6.65613e-07
6.65574e-07
6.65606e-07
9.41855e-07
9.39803e-07
6.6547e-07
6.65658e-07
6.65461e-07
6.6565e-07
6.65643e-07
6.654e-07
6.65636e-07
9.41995e-07
9.39965e-07
6.65531e-07
6.65504e-07
6.65524e-07
9.39901e-07
9.41942e-07
9.39927e-07
6.65579e-07
6.65612e-07
6.65571e-07
6.65604e-07
9.41839e-07
9.39827e-07
6.65467e-07
6.65655e-07
6.65459e-07
6.65647e-07
6.65642e-07
6.65398e-07
6.65632e-07
9.41981e-07
9.39969e-07
6.65531e-07
6.65499e-07
6.6552e-07
9.39891e-07
9.41935e-07
9.39954e-07
6.65578e-07
6.65612e-07
6.65569e-07
6.65602e-07
9.41852e-07
9.39862e-07
6.65466e-07
6.65654e-07
6.65456e-07
6.65644e-07
6.65641e-07
6.65396e-07
6.65629e-07
9.41977e-07
9.39995e-07
6.6553e-07
6.65499e-07
6.65517e-07
9.3989e-07
9.41969e-07
9.3996e-07
6.65579e-07
6.65613e-07
6.65565e-07
6.65598e-07
9.41894e-07
9.3985e-07
6.65467e-07
6.65655e-07
6.65452e-07
6.6564e-07
6.65641e-07
6.65393e-07
6.65626e-07
9.4201e-07
9.3999e-07
6.6553e-07
6.65497e-07
6.65512e-07
9.39894e-07
9.41991e-07
9.39951e-07
6.65581e-07
6.65614e-07
6.65562e-07
6.65594e-07
9.41909e-07
9.39829e-07
6.65469e-07
6.65657e-07
6.65449e-07
6.65636e-07
6.65642e-07
6.65388e-07
6.65622e-07
9.42025e-07
9.39967e-07
6.6553e-07
6.65492e-07
6.65509e-07
9.3989e-07
9.41995e-07
9.39946e-07
6.65584e-07
6.65615e-07
6.65557e-07
6.6559e-07
9.41888e-07
9.39841e-07
6.65471e-07
6.65658e-07
6.65444e-07
6.65631e-07
6.65645e-07
6.65386e-07
6.65618e-07
9.42002e-07
9.39966e-07
6.65531e-07
6.65488e-07
6.65505e-07
9.39874e-07
9.41993e-07
9.39946e-07
6.65585e-07
6.65617e-07
6.65554e-07
6.65586e-07
9.41883e-07
9.39846e-07
6.65473e-07
6.65659e-07
6.6544e-07
6.65629e-07
6.65647e-07
6.65383e-07
6.65614e-07
9.41985e-07
9.39975e-07
6.65533e-07
6.65486e-07
6.655e-07
9.39867e-07
9.41991e-07
9.39922e-07
6.65587e-07
6.6562e-07
6.65549e-07
6.65581e-07
9.41888e-07
9.39827e-07
6.65477e-07
6.65663e-07
6.65435e-07
6.65624e-07
6.6565e-07
6.65376e-07
6.65609e-07
9.41996e-07
9.39986e-07
6.65536e-07
6.65479e-07
6.65495e-07
9.39885e-07
9.41967e-07
9.39896e-07
6.65595e-07
6.65627e-07
6.65539e-07
6.65572e-07
9.41873e-07
9.39827e-07
6.65481e-07
6.65669e-07
6.65429e-07
6.65617e-07
6.65654e-07
6.6537e-07
6.65603e-07
9.42011e-07
9.39989e-07
6.65541e-07
6.65471e-07
6.65488e-07
9.39897e-07
9.41936e-07
9.39887e-07
6.65598e-07
6.65631e-07
6.65533e-07
6.65566e-07
9.41861e-07
9.39838e-07
6.65488e-07
6.65675e-07
6.65422e-07
6.65609e-07
6.65661e-07
6.65363e-07
6.65595e-07
9.42029e-07
9.39959e-07
6.65548e-07
6.65464e-07
6.65479e-07
9.39889e-07
9.41911e-07
9.39909e-07
6.65605e-07
6.65638e-07
6.65527e-07
6.6556e-07
9.41871e-07
9.39844e-07
6.65495e-07
6.65684e-07
6.65414e-07
6.65601e-07
6.65669e-07
6.65356e-07
6.65586e-07
9.4202e-07
9.39924e-07
6.65555e-07
6.65455e-07
6.65472e-07
9.39871e-07
9.41924e-07
9.39941e-07
6.6562e-07
6.65653e-07
6.65513e-07
6.65546e-07
9.4189e-07
9.39821e-07
6.65506e-07
6.65694e-07
6.65405e-07
6.65591e-07
6.6568e-07
6.65346e-07
6.65576e-07
9.41977e-07
9.39921e-07
6.65565e-07
6.65444e-07
6.6546e-07
9.39863e-07
9.41965e-07
9.39933e-07
6.65633e-07
6.65666e-07
6.65504e-07
6.65537e-07
9.41879e-07
9.39794e-07
6.65522e-07
6.6571e-07
6.65393e-07
6.6558e-07
6.65695e-07
6.65334e-07
6.65565e-07
9.41953e-07
9.39937e-07
6.65579e-07
6.65435e-07
6.6545e-07
9.39875e-07
9.4198e-07
9.39904e-07
6.65655e-07
6.65688e-07
6.65492e-07
6.65522e-07
9.4184e-07
9.39788e-07
6.65544e-07
6.65732e-07
6.65381e-07
6.65569e-07
6.65717e-07
6.65319e-07
6.6555e-07
9.41947e-07
9.39978e-07
6.65602e-07
6.65424e-07
6.65433e-07
9.39879e-07
9.41948e-07
9.3969e-07
6.65683e-07
6.6571e-07
6.65114e-07
6.65144e-07
9.41811e-07
9.39612e-07
6.65569e-07
6.65755e-07
6.65e-07
6.65183e-07
6.65739e-07
6.64947e-07
6.65174e-07
9.4198e-07
9.39762e-07
6.6562e-07
6.65037e-07
6.65048e-07
9.39662e-07
9.41605e-07
9.20206e-07
6.65456e-07
6.65483e-07
6.45046e-07
6.45072e-07
9.41512e-07
9.20164e-07
6.65338e-07
6.65528e-07
6.45001e-07
6.45044e-07
6.65516e-07
6.44996e-07
6.45082e-07
9.41657e-07
9.20224e-07
6.65385e-07
6.45017e-07
6.45026e-07
9.20234e-07
8.97503e-07
6.19799e-07
6.19822e-07
8.97477e-07
6.19773e-07
6.19792e-07
2.36085e-07
2.36072e-07
2.36091e-07
6.19831e-07
8.97522e-07
6.19801e-07
4.67425e-08
7.42245e-09
3.1368e-08
3.14399e-08
1.53798e-09
4.67641e-09
1.0814e-08
1.85072e-08
1.38825e-09
4.47064e-09
1.83019e-08
9.98717e-09
5.10838e-09
7.66522e-09
3.69516e-09
6.98418e-09
1.65935e-07
5.29507e-09
2.51382e-07
1.55647e-06
3.09469e-06
7.50455e-09
1.65168e-07
5.57037e-09
2.54187e-07
1.80149e-08
1.7933e-08
1.78097e-08
1.77976e-08
1.78801e-08
1.77954e-08
1.76697e-08
1.61386e-09
8.52588e-08
8.34492e-09
5.31891e-09
1.60663e-09
6.3744e-08
8.26701e-09
1.63128e-06
3.21775e-06
1.38327e-09
8.16091e-09
8.32034e-08
5.1079e-09
1.39201e-09
8.08204e-09
6.18219e-08
2.15285e-07
2.15023e-07
4.76316e-09
1.82503e-07
1.8392e-07
1.76606e-08
4.73258e-07
1.09479e-08
6.6061e-07
6.9839e-06
9.98429e-06
1.82012e-08
4.8023e-07
1.13104e-08
6.61524e-07
1.79736e-08
1.78851e-08
1.77623e-08
1.81993e-08