/*--------------------------------*- C++ -*----------------------------------*\
| =========                 |                                                 |
| \\      /  F ield         | OpenFOAM: The Open Source CFD Toolbox           |
|  \\    /   O peration     | Version:  v1906                                 |
|   \\  /    A nd           | Web:      www.OpenFOAM.com                      |
|    \\/     M anipulation  |                                                 |
\*---------------------------------------------------------------------------*/
FoamFile
{
    version     2.0;
    format      ascii;
    class       volScalarField;
    location    "162.5";
    object      k;
}
// * * * * * * * * * * * * * * * * * * * * * * * * * * * * * * * * * * * * * //

dimensions      [0 2 -2 0 0 0 0];


internalField   nonuniform List<scalar> 
171728
(
2.21999e-06
4.16955e-07
4.07613e-07
3.51275e-07
2.22435e-06
4.14923e-07
4.05004e-07
3.31771e-07
2.28889e-06
4.17155e-07
4.07484e-07
3.17709e-07
2.3548e-06
4.21482e-07
4.13626e-07
3.08993e-07
2.422e-06
4.29992e-07
4.23799e-07
3.01456e-07
2.49046e-06
4.4272e-07
4.36299e-07
2.95572e-07
2.55861e-06
4.58277e-07
4.53292e-07
2.89184e-07
2.62674e-06
4.78603e-07
4.75671e-07
2.82788e-07
2.69411e-06
5.0539e-07
5.02296e-07
2.79757e-07
2.75992e-06
5.36102e-07
5.32675e-07
2.79317e-07
2.82422e-06
5.72141e-07
5.68281e-07
2.79628e-07
2.88755e-06
6.11534e-07
6.08969e-07
2.84161e-07
2.94936e-06
6.52364e-07
6.54316e-07
2.93418e-07
3.01022e-06
6.97677e-07
7.09023e-07
3.09575e-07
3.07075e-06
7.50632e-07
7.64231e-07
3.33198e-07
3.12946e-06
8.10361e-07
8.32139e-07
3.66429e-07
3.18698e-06
8.84159e-07
9.05264e-07
4.07757e-07
3.24485e-06
9.71937e-07
9.63888e-07
4.62415e-07
3.30144e-06
1.08718e-06
1.05557e-06
5.40048e-07
3.36253e-06
1.22757e-06
1.18282e-06
6.64246e-07
3.42772e-06
1.41601e-06
1.34919e-06
8.76541e-07
3.49289e-06
1.67708e-06
1.55465e-06
1.21557e-06
3.56851e-06
1.99659e-06
1.82683e-06
1.73364e-06
3.64406e-06
2.35234e-06
2.18544e-06
2.51515e-06
3.73221e-06
2.74942e-06
2.63869e-06
3.64555e-06
3.84428e-06
3.29115e-06
3.22865e-06
5.15647e-06
3.96598e-06
3.96541e-06
3.93272e-06
7.06441e-06
4.11998e-06
4.7667e-06
4.81092e-06
9.33081e-06
4.29615e-06
5.78612e-06
5.85709e-06
1.19064e-05
4.52336e-06
7.0653e-06
7.08218e-06
1.46941e-05
4.79103e-06
8.4692e-06
8.47892e-06
1.72796e-05
5.13824e-06
1.00027e-05
1.00588e-05
1.95008e-05
5.55499e-06
1.1589e-05
1.1685e-05
2.15861e-05
6.03121e-06
1.30773e-05
1.31276e-05
2.33184e-05
6.6008e-06
1.45979e-05
1.46216e-05
2.46121e-05
7.36045e-06
1.65604e-05
1.65806e-05
2.59638e-05
8.66909e-06
1.94412e-05
1.94554e-05
2.80091e-05
1.05902e-05
2.28463e-05
2.28547e-05
3.05148e-05
1.29345e-05
2.61187e-05
2.61237e-05
3.29306e-05
1.54087e-05
2.886e-05
2.88635e-05
3.49707e-05
1.72551e-05
3.04665e-05
3.047e-05
3.61009e-05
1.82327e-05
3.1163e-05
3.11661e-05
3.65422e-05
1.86273e-05
3.14095e-05
3.14122e-05
3.67067e-05
1.87569e-05
3.14862e-05
3.14887e-05
3.67601e-05
1.87906e-05
3.15043e-05
3.15068e-05
3.67821e-05
1.87957e-05
3.15028e-05
3.15054e-05
3.67697e-05
1.87976e-05
3.15041e-05
3.15067e-05
3.67689e-05
1.87978e-05
3.1506e-05
3.15083e-05
3.67835e-05
1.87975e-05
3.15037e-05
3.15062e-05
3.67608e-05
1.87977e-05
3.15049e-05
3.15073e-05
3.67852e-05
1.87977e-05
3.15047e-05
3.15071e-05
3.67665e-05
1.87979e-05
3.15047e-05
3.1507e-05
3.67719e-05
1.87979e-05
3.15046e-05
3.15069e-05
3.67824e-05
1.8798e-05
3.15054e-05
3.15077e-05
3.67761e-05
1.8798e-05
3.15052e-05
3.15074e-05
3.67654e-05
1.87981e-05
3.15045e-05
3.15069e-05
3.67682e-05
1.87981e-05
3.15049e-05
3.15073e-05
3.67766e-05
1.87981e-05
3.1505e-05
3.15072e-05
3.6781e-05
1.87981e-05
3.15048e-05
3.15069e-05
3.67795e-05
1.87981e-05
3.15055e-05
3.15073e-05
3.67761e-05
1.87981e-05
3.15055e-05
3.15075e-05
3.67832e-05
1.87982e-05
3.15047e-05
3.15069e-05
3.67679e-05
1.87982e-05
3.15049e-05
3.15071e-05
3.6768e-05
1.87983e-05
3.15055e-05
3.15071e-05
3.67831e-05
1.87982e-05
3.15053e-05
3.1507e-05
3.67767e-05
1.87983e-05
3.15048e-05
3.15077e-05
3.67645e-05
1.87983e-05
3.15051e-05
3.15073e-05
3.67711e-05
1.87983e-05
3.15054e-05
3.15071e-05
3.67804e-05
1.87983e-05
3.15053e-05
3.15072e-05
3.67814e-05
1.87982e-05
3.15047e-05
3.1507e-05
3.6778e-05
1.87982e-05
3.15053e-05
3.15069e-05
3.67727e-05
1.87982e-05
3.15053e-05
3.15072e-05
3.67689e-05
1.87981e-05
3.15048e-05
3.15069e-05
3.67667e-05
1.87981e-05
3.15048e-05
3.15069e-05
3.67672e-05
1.87981e-05
3.15049e-05
3.15069e-05
3.67693e-05
1.8798e-05
3.15049e-05
3.1507e-05
3.67694e-05
1.8798e-05
3.15047e-05
3.15069e-05
3.6769e-05
1.8798e-05
3.15047e-05
3.15068e-05
3.67707e-05
1.8798e-05
3.15047e-05
3.15068e-05
3.6773e-05
1.8798e-05
3.15047e-05
3.15069e-05
3.67727e-05
1.8798e-05
3.15047e-05
3.15067e-05
3.67705e-05
1.8798e-05
3.15048e-05
3.15069e-05
3.67704e-05
1.87979e-05
3.15049e-05
3.1507e-05
3.67702e-05
1.8798e-05
3.15048e-05
3.15069e-05
3.67681e-05
1.8798e-05
3.15049e-05
3.15069e-05
3.67672e-05
1.8798e-05
3.15052e-05
3.15073e-05
3.67694e-05
1.8798e-05
3.15054e-05
3.15074e-05
3.67718e-05
1.8798e-05
3.15056e-05
3.15076e-05
3.67699e-05
1.8798e-05
3.15059e-05
3.15079e-05
3.67672e-05
1.8798e-05
3.15065e-05
3.15084e-05
3.67672e-05
1.87981e-05
3.15074e-05
3.15091e-05
3.67692e-05
1.87982e-05
3.15087e-05
3.15107e-05
3.6771e-05
1.87983e-05
3.15108e-05
3.15129e-05
3.67702e-05
1.87782e-05
3.15025e-05
3.15043e-05
3.67626e-05
1.83291e-05
3.03114e-05
3.03112e-05
3.59537e-05
3.49713e-07
3.58641e-07
3.72334e-07
3.75849e-07
3.08162e-07
3.67286e-07
2.28484e-06
2.29484e-06
2.29515e-06
2.28173e-06
3.70718e-07
3.13382e-07
3.62719e-07
3.63172e-07
3.6237e-07
3.54591e-07
3.46287e-07
3.30826e-07
4.15859e-07
4.1885e-07
4.1186e-07
4.14432e-07
3.73014e-07
3.59404e-07
3.54634e-07
4.20169e-07
3.52675e-07
4.17241e-07
3.69696e-07
4.14866e-07
3.56885e-07
3.6001e-07
3.48126e-07
4.17016e-07
4.04995e-07
4.12367e-07
3.35306e-07
3.27621e-07
3.17093e-07
4.11742e-07
4.14143e-07
4.13188e-07
4.14036e-07
3.5638e-07
3.45922e-07
3.53431e-07
4.17416e-07
3.58236e-07
4.19161e-07
3.55307e-07
4.16622e-07
3.55798e-07
3.4567e-07
3.37749e-07
4.12075e-07
4.06809e-07
4.12358e-07
3.20119e-07
3.14456e-07
3.0676e-07
4.14132e-07
4.14321e-07
4.17618e-07
4.17576e-07
3.43229e-07
3.36199e-07
3.60415e-07
4.20238e-07
3.68245e-07
4.24703e-07
3.57846e-07
4.20495e-07
3.64552e-07
3.35513e-07
3.29992e-07
4.13469e-07
4.12064e-07
4.18611e-07
3.11118e-07
3.04494e-07
2.98643e-07
4.18814e-07
4.19272e-07
4.22966e-07
4.26146e-07
3.34183e-07
3.29795e-07
3.70618e-07
4.26601e-07
3.7832e-07
4.33606e-07
3.66885e-07
4.27977e-07
3.75594e-07
3.28096e-07
3.24637e-07
4.20301e-07
4.21064e-07
4.26716e-07
3.03398e-07
2.96552e-07
2.92207e-07
4.25044e-07
4.28398e-07
4.32173e-07
4.35442e-07
3.28e-07
3.24662e-07
3.80857e-07
4.36375e-07
3.91406e-07
4.45513e-07
3.78704e-07
4.39137e-07
3.8871e-07
3.22983e-07
3.20322e-07
4.29112e-07
4.33354e-07
4.36984e-07
2.97446e-07
2.90532e-07
2.88839e-07
4.35289e-07
4.38551e-07
4.46494e-07
4.48765e-07
3.22841e-07
3.18833e-07
3.9547e-07
4.48735e-07
4.09644e-07
4.6134e-07
3.92355e-07
4.54511e-07
4.04579e-07
3.18805e-07
3.16799e-07
4.39677e-07
4.48884e-07
4.50201e-07
2.91262e-07
2.87533e-07
2.86387e-07
4.50677e-07
4.52562e-07
4.66441e-07
4.66705e-07
3.1685e-07
3.1305e-07
4.15217e-07
4.66424e-07
4.34099e-07
4.80842e-07
4.09063e-07
4.73896e-07
4.24538e-07
3.15009e-07
3.12412e-07
4.54424e-07
4.70143e-07
4.68438e-07
2.84688e-07
2.85096e-07
2.84529e-07
4.71345e-07
4.71607e-07
4.89241e-07
4.88016e-07
3.11142e-07
3.07556e-07
4.40576e-07
4.85656e-07
4.63573e-07
5.02996e-07
4.29931e-07
4.98604e-07
4.49175e-07
3.10866e-07
3.10283e-07
4.73883e-07
4.95662e-07
4.92585e-07
2.80923e-07
2.83403e-07
2.83778e-07
4.95404e-07
4.92564e-07
5.15547e-07
5.08192e-07
3.05683e-07
3.03967e-07
4.7151e-07
5.09326e-07
4.95837e-07
5.3355e-07
4.55376e-07
5.28692e-07
4.76524e-07
3.09149e-07
3.10112e-07
4.99057e-07
5.24915e-07
5.22011e-07
2.80381e-07
2.82685e-07
2.84609e-07
5.23291e-07
5.13297e-07
5.46227e-07
5.3145e-07
3.0276e-07
3.0394e-07
5.04266e-07
5.41646e-07
5.30912e-07
5.68623e-07
4.84089e-07
5.62417e-07
5.07892e-07
3.09072e-07
3.12347e-07
5.30047e-07
5.59283e-07
5.54198e-07
2.80626e-07
2.83811e-07
2.9054e-07
5.54558e-07
5.39561e-07
5.81662e-07
5.64373e-07
3.03001e-07
3.07e-07
5.39911e-07
5.78702e-07
5.69158e-07
6.09469e-07
5.17038e-07
6.02118e-07
5.44582e-07
3.1165e-07
3.21161e-07
5.62941e-07
5.98566e-07
5.90477e-07
2.84847e-07
2.89975e-07
3.01466e-07
5.90895e-07
5.73832e-07
6.21264e-07
6.04784e-07
3.06316e-07
3.16501e-07
5.80862e-07
6.21012e-07
6.15665e-07
6.56914e-07
5.55171e-07
6.42141e-07
5.8833e-07
3.20846e-07
3.37408e-07
6.00324e-07
6.42816e-07
6.32624e-07
2.93815e-07
3.01173e-07
3.17844e-07
6.32229e-07
6.15875e-07
6.66097e-07
6.51897e-07
3.16194e-07
3.31441e-07
6.27053e-07
6.69468e-07
6.67134e-07
7.10298e-07
5.99549e-07
6.86016e-07
6.38451e-07
3.37498e-07
3.5963e-07
6.44179e-07
6.95556e-07
6.82256e-07
3.09465e-07
3.17927e-07
3.40198e-07
6.78061e-07
6.64556e-07
7.20067e-07
7.08895e-07
3.31359e-07
3.48943e-07
6.81369e-07
7.23447e-07
7.26689e-07
7.64563e-07
6.51904e-07
7.37849e-07
6.95615e-07
3.60236e-07
3.86861e-07
6.95439e-07
7.49918e-07
7.37419e-07
3.32317e-07
3.4098e-07
3.68538e-07
7.34531e-07
7.24004e-07
7.79192e-07
7.70654e-07
3.4911e-07
3.67962e-07
7.42662e-07
7.79416e-07
7.90854e-07
8.23755e-07
7.12008e-07
7.94938e-07
7.63164e-07
3.87874e-07
4.14837e-07
7.52577e-07
8.14282e-07
8.01198e-07
3.61747e-07
3.73247e-07
4.07448e-07
7.95914e-07
7.88477e-07
8.51377e-07
8.48393e-07
3.70702e-07
3.96912e-07
8.06578e-07
8.3871e-07
8.60894e-07
8.89292e-07
7.81536e-07
8.64068e-07
8.41141e-07
4.18977e-07
4.48051e-07
8.18088e-07
8.89368e-07
8.69676e-07
4.00663e-07
4.14251e-07
4.56064e-07
8.70094e-07
8.69077e-07
9.31016e-07
9.35062e-07
4.0252e-07
4.42388e-07
8.80776e-07
9.0708e-07
9.40971e-07
9.65637e-07
8.62488e-07
9.48732e-07
9.30025e-07
4.53895e-07
4.90605e-07
8.87528e-07
9.47485e-07
9.43338e-07
4.51832e-07
4.66201e-07
5.266e-07
9.54297e-07
9.60343e-07
1.0248e-06
1.04035e-06
4.52679e-07
5.15402e-07
9.65903e-07
9.88465e-07
1.04233e-06
1.05891e-06
9.55361e-07
1.05454e-06
1.03179e-06
4.99913e-07
5.54534e-07
9.64862e-07
1.02787e-06
1.03335e-06
5.23482e-07
5.43272e-07
6.34714e-07
1.0521e-06
1.07085e-06
1.14782e-06
1.17196e-06
5.33093e-07
6.3631e-07
1.06922e-06
1.08728e-06
1.16188e-06
1.17826e-06
1.05987e-06
1.19457e-06
1.15696e-06
5.69728e-07
6.52418e-07
1.05994e-06
1.15052e-06
1.15133e-06
6.35449e-07
6.62993e-07
8.32237e-07
1.18122e-06
1.20559e-06
1.29919e-06
1.32262e-06
6.66288e-07
8.39784e-07
1.19547e-06
1.21003e-06
1.32162e-06
1.33109e-06
1.19045e-06
1.35921e-06
1.30695e-06
6.78123e-07
8.30867e-07
1.18388e-06
1.30535e-06
1.2992e-06
8.27606e-07
8.8237e-07
1.14319e-06
1.34464e-06
1.36761e-06
1.49454e-06
1.51541e-06
8.91302e-07
1.17418e-06
1.36871e-06
1.37605e-06
1.5176e-06
1.52386e-06
1.35158e-06
1.60649e-06
1.49948e-06
8.77525e-07
1.12973e-06
1.34345e-06
1.49629e-06
1.49137e-06
1.13887e-06
1.22139e-06
1.63601e-06
1.55325e-06
1.57346e-06
1.76276e-06
1.77486e-06
1.25526e-06
1.67854e-06
1.57857e-06
1.58268e-06
1.80498e-06
1.77967e-06
1.55891e-06
1.91374e-06
1.7614e-06
1.20398e-06
1.59835e-06
1.55004e-06
1.75369e-06
1.75132e-06
1.61562e-06
1.75657e-06
2.38815e-06
1.84189e-06
1.84848e-06
2.10945e-06
2.10153e-06
1.79924e-06
2.37566e-06
1.89111e-06
1.85321e-06
2.18144e-06
2.11072e-06
1.83511e-06
2.26002e-06
2.09579e-06
1.7161e-06
2.32338e-06
1.82461e-06
2.08639e-06
2.0808e-06
2.34265e-06
2.56727e-06
3.48478e-06
2.21272e-06
2.20223e-06
2.55174e-06
2.55052e-06
2.53442e-06
3.40392e-06
2.29637e-06
2.20967e-06
2.68813e-06
2.5386e-06
2.19784e-06
2.64162e-06
2.52892e-06
2.49445e-06
3.36614e-06
2.1821e-06
2.51657e-06
2.5172e-06
3.40345e-06
3.72683e-06
4.86005e-06
2.6704e-06
2.68353e-06
3.08263e-06
3.14139e-06
3.65035e-06
4.86044e-06
2.82598e-06
2.6601e-06
3.25485e-06
3.08636e-06
2.65154e-06
3.14346e-06
3.07755e-06
3.60382e-06
4.79773e-06
2.64126e-06
3.06853e-06
3.07094e-06
4.8406e-06
5.1632e-06
6.70924e-06
3.24558e-06
3.30982e-06
3.78972e-06
3.859e-06
5.18081e-06
6.73033e-06
3.40339e-06
3.24992e-06
3.86026e-06
3.77527e-06
3.23593e-06
3.78269e-06
3.75384e-06
5.11984e-06
6.66069e-06
3.23155e-06
3.74289e-06
3.75279e-06
6.67855e-06
7.11268e-06
9.00666e-06
3.99098e-06
4.06717e-06
4.66059e-06
4.77385e-06
7.11754e-06
8.90306e-06
4.02772e-06
3.96625e-06
4.61447e-06
4.59863e-06
3.94415e-06
4.55571e-06
4.59404e-06
7.04257e-06
8.85388e-06
3.94404e-06
4.57497e-06
4.59844e-06
8.87048e-06
9.46687e-06
1.15158e-05
4.90235e-06
5.02143e-06
5.6702e-06
5.73763e-06
9.3412e-06
1.13015e-05
4.83508e-06
4.82961e-06
5.55961e-06
5.57366e-06
4.83502e-06
5.50152e-06
5.60189e-06
9.30956e-06
1.13874e-05
4.83927e-06
5.58237e-06
5.60637e-06
1.14061e-05
1.20188e-05
1.42001e-05
5.94745e-06
5.97572e-06
6.85727e-06
6.7789e-06
1.17887e-05
1.39863e-05
5.82835e-06
5.83954e-06
6.73652e-06
6.72765e-06
5.87881e-06
6.73153e-06
6.81045e-06
1.18935e-05
1.40682e-05
5.8864e-06
6.75657e-06
6.81742e-06
1.41498e-05
1.47229e-05
1.68008e-05
7.18019e-06
7.08129e-06
8.19619e-06
8.05754e-06
1.45251e-05
1.66728e-05
7.06807e-06
7.05545e-06
8.10639e-06
8.08548e-06
7.15615e-06
8.10883e-06
8.24758e-06
1.45964e-05
1.67201e-05
7.15501e-06
8.11696e-06
8.22417e-06
1.67955e-05
1.72992e-05
1.91674e-05
8.5572e-06
8.40324e-06
9.74178e-06
9.52678e-06
1.71777e-05
1.90711e-05
8.46471e-06
8.44001e-06
9.58885e-06
9.56832e-06
8.61016e-06
9.60683e-06
9.68546e-06
1.72201e-05
1.91199e-05
8.59128e-06
9.64534e-06
9.71961e-06
1.90584e-05
1.96227e-05
2.12292e-05
1.01637e-05
9.93085e-06
1.14069e-05
1.11706e-05
1.95349e-05
2.1197e-05
9.98129e-06
9.97201e-06
1.117e-05
1.12125e-05
1.00574e-05
1.12008e-05
1.12228e-05
1.95911e-05
2.12707e-05
1.01114e-05
1.12969e-05
1.13045e-05
2.1157e-05
2.16363e-05
2.29534e-05
1.17917e-05
1.15716e-05
1.28574e-05
1.27048e-05
2.16158e-05
2.29589e-05
1.15567e-05
1.16129e-05
1.26711e-05
1.27369e-05
1.1611e-05
1.27097e-05
1.27327e-05
2.16833e-05
2.29749e-05
1.16908e-05
1.2773e-05
1.27927e-05
2.29779e-05
2.32894e-05
2.42949e-05
1.32037e-05
1.30722e-05
1.42804e-05
1.41952e-05
2.32958e-05
2.42899e-05
1.3039e-05
1.31005e-05
1.41698e-05
1.42124e-05
1.31009e-05
1.42029e-05
1.42227e-05
2.33025e-05
2.42862e-05
1.31532e-05
1.42294e-05
1.42554e-05
2.43222e-05
2.4588e-05
2.56162e-05
1.46665e-05
1.45924e-05
1.60388e-05
1.59917e-05
2.45811e-05
2.56046e-05
1.457e-05
1.46065e-05
1.59776e-05
1.60011e-05
1.46161e-05
1.59907e-05
1.60017e-05
2.45781e-05
2.56112e-05
1.46437e-05
1.60116e-05
1.60154e-05
2.56215e-05
2.59617e-05
2.75495e-05
1.66034e-05
1.65636e-05
1.8668e-05
1.86468e-05
2.59502e-05
2.75403e-05
1.65521e-05
1.65731e-05
1.86396e-05
1.86564e-05
1.65704e-05
1.86417e-05
1.86488e-05
2.59576e-05
2.75508e-05
1.65802e-05
1.86576e-05
1.86501e-05
2.75474e-05
2.80112e-05
3.00269e-05
1.94634e-05
1.94472e-05
2.20043e-05
2.19983e-05
2.80033e-05
3.00229e-05
1.94407e-05
1.94562e-05
2.19921e-05
2.20043e-05
1.94485e-05
2.19918e-05
2.19991e-05
2.80131e-05
3.00302e-05
1.94482e-05
2.20011e-05
2.19958e-05
3.00275e-05
3.05141e-05
3.24835e-05
2.28572e-05
2.28531e-05
2.53342e-05
2.5333e-05
3.05107e-05
3.2481e-05
2.28474e-05
2.28583e-05
2.53285e-05
2.53364e-05
2.28543e-05
2.53278e-05
2.53354e-05
3.05171e-05
3.24857e-05
2.28505e-05
2.53334e-05
2.53312e-05
3.24854e-05
3.29291e-05
3.46244e-05
2.61244e-05
2.61236e-05
2.82708e-05
2.82706e-05
3.29268e-05
3.46224e-05
2.61197e-05
2.61265e-05
2.82675e-05
2.82728e-05
2.61261e-05
2.8267e-05
2.82734e-05
3.29309e-05
3.46255e-05
2.61222e-05
2.82705e-05
2.82702e-05
3.46262e-05
3.49691e-05
3.59258e-05
2.88637e-05
2.88634e-05
3.01739e-05
3.01738e-05
3.49673e-05
3.59238e-05
2.88608e-05
2.88654e-05
3.01717e-05
3.01752e-05
2.88664e-05
3.0171e-05
3.01772e-05
3.49699e-05
3.59267e-05
2.88635e-05
3.01744e-05
3.01746e-05
3.59283e-05
3.60984e-05
3.64491e-05
3.04691e-05
3.04689e-05
3.10482e-05
3.10481e-05
3.60966e-05
3.64474e-05
3.04675e-05
3.04703e-05
3.10469e-05
3.10492e-05
3.04725e-05
3.10461e-05
3.10517e-05
3.60993e-05
3.64498e-05
3.04701e-05
3.10492e-05
3.10496e-05
3.64514e-05
3.65399e-05
3.66508e-05
3.11649e-05
3.11647e-05
3.1373e-05
3.13729e-05
3.65384e-05
3.66492e-05
3.11637e-05
3.11658e-05
3.13719e-05
3.1374e-05
3.11683e-05
3.13714e-05
3.13764e-05
3.65405e-05
3.66513e-05
3.11663e-05
3.13742e-05
3.13746e-05
3.66529e-05
3.67044e-05
3.67171e-05
3.14109e-05
3.14108e-05
3.14758e-05
3.14757e-05
3.67029e-05
3.67155e-05
3.141e-05
3.14118e-05
3.14748e-05
3.14767e-05
3.14143e-05
3.14745e-05
3.14791e-05
3.67049e-05
3.67175e-05
3.14126e-05
3.14771e-05
3.14775e-05
3.67191e-05
3.67579e-05
3.67424e-05
3.14875e-05
3.14873e-05
3.15045e-05
3.15043e-05
3.67564e-05
3.67408e-05
3.14865e-05
3.14883e-05
3.15034e-05
3.15052e-05
3.14907e-05
3.15031e-05
3.15076e-05
3.67582e-05
3.67426e-05
3.14891e-05
3.15056e-05
3.1506e-05
3.67443e-05
3.67802e-05
3.67337e-05
3.15057e-05
3.15055e-05
3.1505e-05
3.15048e-05
3.67787e-05
3.67323e-05
3.15046e-05
3.15064e-05
3.15039e-05
3.15057e-05
3.15088e-05
3.15035e-05
3.15081e-05
3.67804e-05
3.67343e-05
3.15072e-05
3.1506e-05
3.15064e-05
3.67359e-05
3.67674e-05
3.6729e-05
3.15043e-05
3.15042e-05
3.15045e-05
3.15042e-05
3.6766e-05
3.67269e-05
3.15032e-05
3.1505e-05
3.15033e-05
3.15051e-05
3.15074e-05
3.15029e-05
3.15075e-05
3.6768e-05
3.67287e-05
3.15057e-05
3.15054e-05
3.15058e-05
3.67303e-05
3.67674e-05
3.67438e-05
3.15055e-05
3.15053e-05
3.15079e-05
3.15077e-05
3.67654e-05
3.67433e-05
3.15043e-05
3.15062e-05
3.15067e-05
3.15085e-05
3.15086e-05
3.15064e-05
3.15109e-05
3.67671e-05
3.67455e-05
3.15069e-05
3.15088e-05
3.15092e-05
3.67472e-05
3.67807e-05
3.67244e-05
3.15075e-05
3.15073e-05
3.1505e-05
3.15047e-05
3.67799e-05
3.67224e-05
3.15063e-05
3.1508e-05
3.15037e-05
3.15055e-05
3.15103e-05
3.15034e-05
3.1508e-05
3.67817e-05
3.67241e-05
3.15086e-05
3.15058e-05
3.15063e-05
3.67256e-05
3.67588e-05
3.67464e-05
3.15053e-05
3.15049e-05
3.15072e-05
3.15068e-05
3.67571e-05
3.6745e-05
3.15039e-05
3.15057e-05
3.15058e-05
3.15076e-05
3.15082e-05
3.15054e-05
3.15098e-05
3.6759e-05
3.67469e-05
3.15066e-05
3.15078e-05
3.15084e-05
3.67486e-05
3.67836e-05
3.67236e-05
3.15066e-05
3.15061e-05
3.15062e-05
3.15059e-05
3.67819e-05
3.67224e-05
3.15052e-05
3.15069e-05
3.15048e-05
3.15067e-05
3.15092e-05
3.15046e-05
3.15091e-05
3.67834e-05
3.67247e-05
3.15078e-05
3.1507e-05
3.15074e-05
3.67261e-05
3.67623e-05
3.67413e-05
3.15062e-05
3.1506e-05
3.15062e-05
3.15058e-05
3.67624e-05
3.67374e-05
3.15048e-05
3.15066e-05
3.15048e-05
3.15067e-05
3.15091e-05
3.15046e-05
3.1509e-05
3.67651e-05
3.67378e-05
3.15074e-05
3.15069e-05
3.15074e-05
3.67403e-05
3.67725e-05
3.67403e-05
3.15062e-05
3.15058e-05
3.15069e-05
3.15065e-05
3.67689e-05
3.67403e-05
3.15048e-05
3.15067e-05
3.15049e-05
3.15069e-05
3.1509e-05
3.15051e-05
3.15095e-05
3.67694e-05
3.67429e-05
3.15074e-05
3.15074e-05
3.15078e-05
3.67442e-05
3.67796e-05
3.67273e-05
3.15065e-05
3.15059e-05
3.15068e-05
3.15064e-05
3.67787e-05
3.67298e-05
3.15047e-05
3.15065e-05
3.1505e-05
3.15072e-05
3.1509e-05
3.15054e-05
3.15097e-05
3.67804e-05
3.67342e-05
3.15073e-05
3.15076e-05
3.15079e-05
3.67329e-05
3.67691e-05
3.6729e-05
3.15071e-05
3.15065e-05
3.15065e-05
3.1506e-05
3.67726e-05
3.67255e-05
3.15051e-05
3.15071e-05
3.15048e-05
3.15067e-05
3.15098e-05
3.15045e-05
3.15089e-05
3.67762e-05
3.6728e-05
3.15081e-05
3.15068e-05
3.15071e-05
3.67288e-05
3.67629e-05
3.67404e-05
3.15066e-05
3.15064e-05
3.15068e-05
3.1506e-05
3.67639e-05
3.67292e-05
3.15048e-05
3.1507e-05
3.1505e-05
3.15068e-05
3.15094e-05
3.15046e-05
3.1509e-05
3.67688e-05
3.67292e-05
3.15075e-05
3.15069e-05
3.15073e-05
3.67358e-05
3.67716e-05
3.67432e-05
3.15067e-05
3.15061e-05
3.15068e-05
3.15061e-05
3.67627e-05
3.67384e-05
3.15049e-05
3.1507e-05
3.15049e-05
3.15066e-05
3.15089e-05
3.15053e-05
3.15096e-05
3.67643e-05
3.67329e-05
3.15071e-05
3.15073e-05
3.15077e-05
3.6744e-05
3.67797e-05
3.67374e-05
3.15066e-05
3.1506e-05
3.15072e-05
3.15065e-05
3.67699e-05
3.67411e-05
3.15049e-05
3.15067e-05
3.15051e-05
3.15068e-05
3.15092e-05
3.1505e-05
3.15094e-05
3.67661e-05
3.67342e-05
3.15074e-05
3.15071e-05
3.15076e-05
3.67445e-05
3.67779e-05
3.67306e-05
3.15069e-05
3.1506e-05
3.1507e-05
3.15067e-05
3.67758e-05
3.67401e-05
3.15048e-05
3.15065e-05
3.15052e-05
3.15071e-05
3.15092e-05
3.15052e-05
3.15097e-05
3.67667e-05
3.67372e-05
3.15074e-05
3.15071e-05
3.15077e-05
3.67395e-05
3.67729e-05
3.67292e-05
3.15071e-05
3.15062e-05
3.15069e-05
3.15067e-05
3.67768e-05
3.67393e-05
3.15052e-05
3.15068e-05
3.15049e-05
3.1507e-05
3.15094e-05
3.15056e-05
3.15095e-05
3.67688e-05
3.67428e-05
3.15075e-05
3.15077e-05
3.15077e-05
3.67365e-05
3.67692e-05
3.67288e-05
3.15071e-05
3.15066e-05
3.15069e-05
3.15062e-05
3.67785e-05
3.67291e-05
3.15052e-05
3.15069e-05
3.15048e-05
3.15068e-05
3.15094e-05
3.15047e-05
3.15095e-05
3.67758e-05
3.67407e-05
3.15074e-05
3.15072e-05
3.1508e-05
3.67432e-05
3.67682e-05
3.67276e-05
3.15072e-05
3.15067e-05
3.15066e-05
3.1506e-05
3.6772e-05
3.67279e-05
3.1505e-05
3.15068e-05
3.15046e-05
3.15067e-05
3.15097e-05
3.15047e-05
3.15091e-05
3.6776e-05
3.67414e-05
3.15082e-05
3.15069e-05
3.1507e-05
3.67272e-05
3.67625e-05
3.67412e-05
3.15068e-05
3.15061e-05
3.15071e-05
3.15064e-05
3.67638e-05
3.67321e-05
3.15047e-05
3.15065e-05
3.15052e-05
3.1507e-05
3.15091e-05
3.15052e-05
3.15095e-05
3.6774e-05
3.67419e-05
3.15074e-05
3.15073e-05
3.15074e-05
3.67357e-05
3.67726e-05
3.67372e-05
3.15065e-05
3.15061e-05
3.15072e-05
3.15065e-05
3.67698e-05
3.67282e-05
3.15045e-05
3.15067e-05
3.15053e-05
3.15069e-05
3.15091e-05
3.15054e-05
3.15097e-05
3.6777e-05
3.67384e-05
3.1507e-05
3.15072e-05
3.15081e-05
3.67468e-05
3.67761e-05
3.67326e-05
3.15071e-05
3.15065e-05
3.15069e-05
3.15063e-05
3.67708e-05
3.67272e-05
3.15053e-05
3.15067e-05
3.15049e-05
3.15071e-05
3.15096e-05
3.15047e-05
3.15092e-05
3.67709e-05
3.67414e-05
3.15077e-05
3.15074e-05
3.15074e-05
3.67337e-05
3.67651e-05
3.67439e-05
3.15069e-05
3.15063e-05
3.1507e-05
3.15063e-05
3.6763e-05
3.67354e-05
3.15048e-05
3.15067e-05
3.1505e-05
3.15072e-05
3.15096e-05
3.15048e-05
3.1509e-05
3.67726e-05
3.67438e-05
3.15078e-05
3.15077e-05
3.15073e-05
3.67295e-05
3.67765e-05
3.67413e-05
3.1507e-05
3.15063e-05
3.1507e-05
3.15063e-05
3.67708e-05
3.67359e-05
3.1505e-05
3.15071e-05
3.15049e-05
3.15068e-05
3.1509e-05
3.15054e-05
3.15095e-05
3.67804e-05
3.67364e-05
3.15075e-05
3.15069e-05
3.15072e-05
3.67395e-05
3.67798e-05
3.67345e-05
3.1507e-05
3.15063e-05
3.15073e-05
3.15065e-05
3.67768e-05
3.67304e-05
3.15049e-05
3.15071e-05
3.1505e-05
3.15066e-05
3.1509e-05
3.15053e-05
3.15097e-05
3.67778e-05
3.6728e-05
3.15073e-05
3.15071e-05
3.15076e-05
3.67457e-05
3.67766e-05
3.67283e-05
3.15072e-05
3.15065e-05
3.1507e-05
3.15062e-05
3.67735e-05
3.67247e-05
3.15048e-05
3.15067e-05
3.15051e-05
3.15067e-05
3.15094e-05
3.15048e-05
3.15096e-05
3.67697e-05
3.67284e-05
3.1507e-05
3.15071e-05
3.15079e-05
3.67423e-05
3.67699e-05
3.67284e-05
3.15072e-05
3.15064e-05
3.15069e-05
3.15063e-05
3.67627e-05
3.67318e-05
3.15052e-05
3.15067e-05
3.15048e-05
3.1507e-05
3.15096e-05
3.15047e-05
3.15094e-05
3.67628e-05
3.67396e-05
3.15077e-05
3.15069e-05
3.15073e-05
3.67356e-05
3.67641e-05
3.67323e-05
3.15069e-05
3.15059e-05
3.15072e-05
3.15073e-05
3.6764e-05
3.67438e-05
3.15051e-05
3.15067e-05
3.15046e-05
3.1507e-05
3.15096e-05
3.15055e-05
3.15091e-05
3.6771e-05
3.67419e-05
3.15076e-05
3.15071e-05
3.15071e-05
3.67309e-05
3.6765e-05
3.67431e-05
3.15071e-05
3.1507e-05
3.15071e-05
3.15061e-05
3.67801e-05
3.67288e-05
3.15047e-05
3.15071e-05
3.15049e-05
3.15067e-05
3.15094e-05
3.15047e-05
3.15091e-05
3.67792e-05
3.67334e-05
3.15073e-05
3.15071e-05
3.15072e-05
3.67302e-05
3.67748e-05
3.67413e-05
3.15071e-05
3.15069e-05
3.15071e-05
3.1506e-05
3.67718e-05
3.67271e-05
3.15045e-05
3.15068e-05
3.15051e-05
3.15067e-05
3.15092e-05
3.15046e-05
3.15093e-05
3.67729e-05
3.67352e-05
3.15073e-05
3.15068e-05
3.15072e-05
3.67309e-05
3.67803e-05
3.67274e-05
3.15071e-05
3.15061e-05
3.1507e-05
3.15065e-05
3.6762e-05
3.67331e-05
3.15051e-05
3.15067e-05
3.15047e-05
3.15067e-05
3.15093e-05
3.15048e-05
3.15093e-05
3.67707e-05
3.67347e-05
3.15074e-05
3.15068e-05
3.15072e-05
3.67333e-05
3.67688e-05
3.67314e-05
3.1507e-05
3.15061e-05
3.15069e-05
3.15063e-05
3.67656e-05
3.67359e-05
3.15048e-05
3.15066e-05
3.15048e-05
3.15069e-05
3.15094e-05
3.15048e-05
3.15092e-05
3.67669e-05
3.67359e-05
3.15074e-05
3.15068e-05
3.15072e-05
3.67364e-05
3.67647e-05
3.67413e-05
3.15069e-05
3.15063e-05
3.15069e-05
3.15061e-05
3.67678e-05
3.67363e-05
3.15047e-05
3.15068e-05
3.15048e-05
3.15068e-05
3.15095e-05
3.15047e-05
3.1509e-05
3.67678e-05
3.67395e-05
3.15073e-05
3.15068e-05
3.15072e-05
3.67367e-05
3.67733e-05
3.6743e-05
3.15069e-05
3.15062e-05
3.15069e-05
3.15061e-05
3.6768e-05
3.67384e-05
3.15047e-05
3.15067e-05
3.15051e-05
3.1507e-05
3.15091e-05
3.15048e-05
3.15093e-05
3.6771e-05
3.6742e-05
3.15073e-05
3.15067e-05
3.15071e-05
3.67364e-05
3.67781e-05
3.67404e-05
3.1507e-05
3.1506e-05
3.15068e-05
3.15061e-05
3.677e-05
3.67398e-05
3.15047e-05
3.15066e-05
3.1505e-05
3.15069e-05
3.15091e-05
3.15047e-05
3.15091e-05
3.67748e-05
3.67424e-05
3.15072e-05
3.15068e-05
3.15072e-05
3.67386e-05
3.67791e-05
3.67343e-05
3.1507e-05
3.15061e-05
3.15067e-05
3.15059e-05
3.67727e-05
3.67398e-05
3.15053e-05
3.1507e-05
3.15044e-05
3.15065e-05
3.15091e-05
3.15045e-05
3.1509e-05
3.67778e-05
3.67404e-05
3.15071e-05
3.15067e-05
3.15071e-05
3.6741e-05
3.6775e-05
3.67365e-05
3.15069e-05
3.1506e-05
3.15068e-05
3.15059e-05
3.67733e-05
3.67406e-05
3.15048e-05
3.15067e-05
3.15044e-05
3.15066e-05
3.15091e-05
3.15044e-05
3.15088e-05
3.67777e-05
3.67402e-05
3.15071e-05
3.15064e-05
3.15069e-05
3.67404e-05
3.67758e-05
3.6741e-05
3.15068e-05
3.1506e-05
3.15067e-05
3.15059e-05
3.67748e-05
3.67405e-05
3.15046e-05
3.15066e-05
3.15045e-05
3.15065e-05
3.15091e-05
3.15044e-05
3.15087e-05
3.67769e-05
3.67418e-05
3.15071e-05
3.15063e-05
3.15067e-05
3.67382e-05
3.67788e-05
3.67382e-05
3.15068e-05
3.15061e-05
3.15066e-05
3.15058e-05
3.67774e-05
3.67361e-05
3.15047e-05
3.15067e-05
3.15043e-05
3.15063e-05
3.1509e-05
3.15043e-05
3.15087e-05
3.67781e-05
3.67401e-05
3.15071e-05
3.15065e-05
3.15066e-05
3.6738e-05
3.6778e-05
3.67332e-05
3.15069e-05
3.15062e-05
3.15064e-05
3.15056e-05
3.67763e-05
3.67291e-05
3.15047e-05
3.15067e-05
3.15041e-05
3.1506e-05
3.1509e-05
3.15041e-05
3.15086e-05
3.67787e-05
3.67353e-05
3.1507e-05
3.15063e-05
3.15064e-05
3.67375e-05
3.67752e-05
3.67299e-05
3.1507e-05
3.15062e-05
3.15062e-05
3.15055e-05
3.67709e-05
3.67294e-05
3.15048e-05
3.15067e-05
3.15039e-05
3.15059e-05
3.15091e-05
3.15039e-05
3.15084e-05
3.67758e-05
3.67351e-05
3.1507e-05
3.1506e-05
3.15064e-05
3.67344e-05
3.67712e-05
3.67307e-05
3.15071e-05
3.15062e-05
3.15061e-05
3.15054e-05
3.67688e-05
3.67343e-05
3.15048e-05
3.15067e-05
3.15038e-05
3.15058e-05
3.15091e-05
3.1504e-05
3.15082e-05
3.67749e-05
3.67398e-05
3.15071e-05
3.1506e-05
3.15062e-05
3.67336e-05
3.67706e-05
3.67348e-05
3.1507e-05
3.15062e-05
3.15062e-05
3.15054e-05
3.67747e-05
3.67353e-05
3.15048e-05
3.15066e-05
3.15037e-05
3.15058e-05
3.15092e-05
3.15039e-05
3.15081e-05
3.67776e-05
3.67398e-05
3.15071e-05
3.1506e-05
3.15062e-05
3.67367e-05
3.67751e-05
3.6738e-05
3.15072e-05
3.15064e-05
3.15058e-05
3.15051e-05
3.67753e-05
3.67347e-05
3.1505e-05
3.15069e-05
3.15036e-05
3.15056e-05
3.15093e-05
3.15036e-05
3.1508e-05
3.67784e-05
3.67365e-05
3.15072e-05
3.15056e-05
3.1506e-05
3.67393e-05
3.67772e-05
3.67383e-05
3.15075e-05
3.15068e-05
3.15055e-05
3.15048e-05
3.67748e-05
3.67357e-05
3.15052e-05
3.15072e-05
3.15034e-05
3.15054e-05
3.15095e-05
3.15035e-05
3.15078e-05
3.6777e-05
3.67329e-05
3.15075e-05
3.15054e-05
3.15056e-05
3.67366e-05
3.67767e-05
3.67404e-05
3.15074e-05
3.15067e-05
3.15056e-05
3.15048e-05
3.67754e-05
3.67358e-05
3.15054e-05
3.15074e-05
3.15033e-05
3.15052e-05
3.15098e-05
3.15034e-05
3.15076e-05
3.67749e-05
3.67296e-05
3.15077e-05
3.15052e-05
3.15054e-05
3.67326e-05
3.67772e-05
3.67409e-05
3.15078e-05
3.15071e-05
3.15055e-05
3.15047e-05
3.67756e-05
3.6734e-05
3.15057e-05
3.15077e-05
3.15033e-05
3.15051e-05
3.15101e-05
3.15033e-05
3.15076e-05
3.67709e-05
3.67304e-05
3.15079e-05
3.15051e-05
3.15054e-05
3.67329e-05
3.6779e-05
3.67363e-05
3.15087e-05
3.1508e-05
3.15052e-05
3.15045e-05
3.67748e-05
3.67328e-05
3.15063e-05
3.15082e-05
3.15033e-05
3.15052e-05
3.15106e-05
3.15033e-05
3.15076e-05
3.67677e-05
3.67366e-05
3.15085e-05
3.15051e-05
3.15054e-05
3.67357e-05
3.67775e-05
3.6731e-05
3.15092e-05
3.15085e-05
3.15057e-05
3.15049e-05
3.67735e-05
3.67361e-05
3.15072e-05
3.15091e-05
3.15034e-05
3.15055e-05
3.15115e-05
3.15035e-05
3.15078e-05
3.67736e-05
3.67412e-05
3.15093e-05
3.15056e-05
3.15056e-05
3.67375e-05
3.6773e-05
3.67308e-05
3.15107e-05
3.151e-05
3.15063e-05
3.15056e-05
3.67751e-05
3.67387e-05
3.15086e-05
3.15105e-05
3.15041e-05
3.15062e-05
3.15129e-05
3.15042e-05
3.15085e-05
3.67787e-05
3.6738e-05
3.15107e-05
3.15062e-05
3.15063e-05
3.67368e-05
3.67699e-05
3.67279e-05
3.15129e-05
3.15121e-05
3.1499e-05
3.14984e-05
3.67769e-05
3.67324e-05
3.15106e-05
3.15127e-05
3.14969e-05
3.14989e-05
3.15149e-05
3.14971e-05
3.15012e-05
3.67782e-05
3.67283e-05
3.15127e-05
3.14987e-05
3.1499e-05
3.67306e-05
3.67631e-05
3.63601e-05
3.15045e-05
3.15039e-05
3.10828e-05
3.10823e-05
3.67693e-05
3.63604e-05
3.15024e-05
3.15044e-05
3.10825e-05
3.10809e-05
3.15066e-05
3.10838e-05
3.10843e-05
3.67646e-05
3.63598e-05
3.15044e-05
3.10837e-05
3.10839e-05
3.63607e-05
3.59529e-05
3.03096e-05
3.03092e-05
3.59538e-05
3.03099e-05
3.03077e-05
1.83291e-05
1.83283e-05
1.83296e-05
3.0311e-05
3.59524e-05
3.03113e-05
5.80996e-06
8.81112e-07
3.90757e-06
3.90875e-06
9.16577e-08
3.70866e-07
4.37186e-07
2.34572e-06
9.82148e-08
3.63663e-07
2.33755e-06
4.1461e-07
3.6087e-07
3.80627e-07
2.6375e-07
2.95455e-07
4.99651e-06
2.43673e-07
6.49207e-06
1.36786e-05
2.1175e-05
2.99284e-07
4.981e-06
2.42737e-07
6.54008e-06
2.23155e-06
2.23158e-06
2.2162e-06
2.20968e-06
2.22023e-06
2.22021e-06
2.20483e-06
9.12745e-08
7.03926e-07
1.03396e-06
4.15052e-07
9.16676e-08
6.76809e-07
1.02528e-06
1.40945e-05
2.17339e-05
9.54128e-08
1.02676e-06
6.69276e-07
4.0533e-07
9.62973e-08
1.01825e-06
6.41893e-07
1.8326e-06
1.8872e-06
3.44763e-07
1.80062e-06
1.86606e-06
5.06678e-07
9.88864e-06
3.88274e-07
1.23596e-05
3.64107e-05
4.62123e-05
5.1037e-07
9.98912e-06
3.92937e-07
1.2364e-05
2.23465e-06
2.23458e-06
2.22008e-06
2.27297e-06