/*--------------------------------*- C++ -*----------------------------------*\
| =========                 |                                                 |
| \\      /  F ield         | OpenFOAM: The Open Source CFD Toolbox           |
|  \\    /   O peration     | Version:  v1906                                 |
|   \\  /    A nd           | Web:      www.OpenFOAM.com                      |
|    \\/     M anipulation  |                                                 |
\*---------------------------------------------------------------------------*/
FoamFile
{
    version     2.0;
    format      ascii;
    class       volScalarField;
    location    "162.5";
    object      nut;
}
// * * * * * * * * * * * * * * * * * * * * * * * * * * * * * * * * * * * * * //

dimensions      [0 2 -1 0 0 0 0];


internalField   nonuniform List<scalar> 
171728
(
2.47376e-05
2.90598e-06
2.89223e-06
2.25517e-06
2.48935e-05
3.02935e-06
3.00635e-06
2.21137e-06
2.57658e-05
3.19937e-06
3.18245e-06
2.21386e-06
2.66472e-05
3.3713e-06
3.38885e-06
2.25365e-06
2.75505e-05
3.5723e-06
3.63292e-06
2.28865e-06
2.8442e-05
3.80621e-06
3.88447e-06
2.33869e-06
2.92947e-05
4.05587e-06
4.17056e-06
2.36034e-06
3.01215e-05
4.33418e-06
4.50232e-06
2.36083e-06
3.09176e-05
4.66767e-06
4.86133e-06
2.38873e-06
3.16679e-05
5.00632e-06
5.23446e-06
2.43819e-06
3.2378e-05
5.37354e-06
5.63779e-06
2.45499e-06
3.30727e-05
5.74178e-06
6.06146e-06
2.49477e-06
3.37297e-05
6.05748e-06
6.50011e-06
2.5468e-06
3.43706e-05
6.35906e-06
7.01724e-06
2.63831e-06
3.50065e-05
6.68361e-06
7.43779e-06
2.75957e-06
3.56021e-05
6.97994e-06
7.99681e-06
2.91804e-06
3.61691e-05
7.32681e-06
8.44356e-06
3.04177e-06
3.67061e-05
7.66902e-06
8.3257e-06
3.13447e-06
3.72028e-05
8.13017e-06
8.4375e-06
3.23335e-06
3.77533e-05
8.57274e-06
8.72565e-06
3.48153e-06
3.83097e-05
9.18749e-06
9.11464e-06
4.07641e-06
3.88073e-05
1.01014e-05
9.50819e-06
5.0892e-06
3.94388e-05
1.12683e-05
1.01554e-05
6.62515e-06
3.97579e-05
1.23117e-05
1.11197e-05
9.00079e-06
4.01022e-05
1.31859e-05
1.23868e-05
1.25119e-05
4.06224e-05
1.47342e-05
1.42569e-05
1.71674e-05
4.09256e-05
1.6858e-05
1.64426e-05
2.29781e-05
4.13337e-05
1.92458e-05
1.93709e-05
2.96988e-05
4.15568e-05
2.25407e-05
2.29731e-05
3.73304e-05
4.20744e-05
2.72985e-05
2.73497e-05
4.59927e-05
4.26623e-05
3.26739e-05
3.2576e-05
5.46425e-05
4.38261e-05
3.87049e-05
3.88709e-05
6.17119e-05
4.49466e-05
4.48387e-05
4.53948e-05
6.85646e-05
4.52446e-05
4.97291e-05
5.00264e-05
7.45328e-05
4.48137e-05
5.36407e-05
5.37532e-05
7.84324e-05
4.47291e-05
5.8869e-05
5.89693e-05
8.19215e-05
4.91584e-05
6.9287e-05
6.93596e-05
8.86967e-05
5.92099e-05
8.41272e-05
8.41657e-05
9.85712e-05
7.43521e-05
0.000100453
0.00010047
0.000109165
9.41282e-05
0.00011641
0.000116417
0.000119277
0.000111398
0.000126901
0.000126907
0.000125402
0.00012149
0.000131754
0.000131758
0.000127866
0.000125813
0.000133531
0.000133533
0.000128792
0.000127286
0.000134096
0.000134096
0.000129097
0.000127689
0.000134241
0.000134241
0.000129246
0.000127751
0.000134234
0.000134234
0.000129187
0.000127772
0.000134238
0.000134238
0.000129154
0.000127777
0.000134258
0.000134256
0.000129266
0.000127771
0.000134237
0.000134237
0.000129108
0.000127773
0.000134248
0.000134246
0.000129284
0.000127773
0.000134246
0.000134245
0.000129139
0.000127775
0.000134245
0.000134244
0.000129194
0.000127775
0.000134245
0.000134243
0.000129259
0.000127775
0.000134251
0.00013425
0.000129208
0.000127776
0.000134249
0.000134246
0.000129135
0.000127776
0.000134244
0.000134242
0.000129164
0.000127776
0.000134247
0.000134246
0.000129223
0.000127776
0.000134247
0.000134245
0.000129253
0.000127776
0.000134246
0.000134243
0.000129234
0.000127776
0.000134252
0.000134246
0.000129215
0.000127776
0.000134251
0.000134247
0.000129263
0.000127777
0.000134245
0.000134243
0.00012915
0.000127776
0.000134247
0.000134244
0.000129164
0.000127777
0.000134251
0.000134244
0.000129269
0.000127777
0.000134249
0.000134244
0.000129206
0.000127777
0.000134246
0.000134249
0.000129124
0.000127778
0.000134248
0.000134245
0.000129179
0.000127778
0.000134251
0.000134244
0.000129247
0.000127778
0.00013425
0.000134245
0.000129255
0.000127777
0.000134245
0.000134244
0.000129231
0.000127778
0.000134251
0.000134243
0.000129198
0.000127777
0.00013425
0.000134245
0.000129173
0.000127777
0.000134247
0.000134244
0.000129158
0.000127777
0.000134247
0.000134243
0.000129162
0.000127777
0.000134247
0.000134244
0.000129178
0.000127777
0.000134247
0.000134244
0.00012918
0.000127777
0.000134247
0.000134244
0.000129178
0.000127777
0.000134247
0.000134244
0.000129192
0.000127777
0.000134247
0.000134244
0.000129209
0.000127777
0.000134246
0.000134244
0.000129206
0.000127777
0.000134247
0.000134243
0.000129191
0.000127777
0.000134248
0.000134244
0.00012919
0.000127776
0.000134247
0.000134245
0.000129188
0.000127777
0.000134247
0.000134244
0.000129171
0.000127777
0.000134247
0.000134243
0.000129167
0.000127777
0.000134249
0.000134246
0.000129186
0.000127777
0.000134249
0.000134246
0.000129202
0.000127777
0.000134249
0.000134246
0.000129185
0.000127777
0.000134251
0.000134247
0.000129165
0.000127777
0.000134253
0.000134249
0.000129167
0.000127778
0.000134258
0.000134253
0.000129184
0.000127779
0.000134265
0.000134261
0.000129196
0.000127781
0.000134278
0.000134275
0.000129193
0.000127713
0.000134254
0.000134249
0.000129183
0.000128073
0.000133419
0.000133413
0.00012962
2.24271e-06
2.54383e-06
2.80016e-06
2.35775e-06
2.14492e-06
2.62009e-06
2.55275e-05
2.56437e-05
2.57669e-05
2.56265e-05
2.66833e-06
2.30203e-06
2.2831e-06
2.66993e-06
2.56926e-06
2.28239e-06
2.22112e-06
2.19013e-06
2.95273e-06
3.00857e-06
3.03385e-06
3.08081e-06
2.34337e-06
2.37077e-06
2.41488e-06
2.91196e-06
2.47762e-06
2.98911e-06
2.70953e-06
2.99046e-06
2.63261e-06
2.2699e-06
2.28812e-06
2.95713e-06
2.96727e-06
3.0226e-06
2.22439e-06
2.18092e-06
2.18915e-06
3.07788e-06
3.121e-06
3.22455e-06
3.24075e-06
2.36891e-06
2.40629e-06
2.51583e-06
3.03122e-06
2.65407e-06
3.16626e-06
2.64196e-06
3.15923e-06
2.73356e-06
2.28955e-06
2.33963e-06
3.06176e-06
3.13922e-06
3.18581e-06
2.21559e-06
2.18179e-06
2.19333e-06
3.27681e-06
3.28105e-06
3.43358e-06
3.43093e-06
2.40374e-06
2.4585e-06
2.70517e-06
3.21612e-06
2.87231e-06
3.37478e-06
2.79014e-06
3.33388e-06
2.96176e-06
2.34073e-06
2.40138e-06
3.23961e-06
3.33885e-06
3.42072e-06
2.25755e-06
2.18564e-06
2.20451e-06
3.48322e-06
3.48809e-06
3.62849e-06
3.68279e-06
2.46055e-06
2.52606e-06
2.92218e-06
3.43151e-06
3.07623e-06
3.61024e-06
3.01774e-06
3.52934e-06
3.20597e-06
2.40273e-06
2.46964e-06
3.47788e-06
3.5714e-06
3.65905e-06
2.29121e-06
2.19707e-06
2.22472e-06
3.68524e-06
3.74292e-06
3.8518e-06
3.92258e-06
2.52669e-06
2.58435e-06
3.12276e-06
3.67529e-06
3.29487e-06
3.86353e-06
3.26988e-06
3.74493e-06
3.4598e-06
2.47081e-06
2.52821e-06
3.72208e-06
3.8306e-06
3.90602e-06
2.34246e-06
2.21954e-06
2.27226e-06
3.91519e-06
3.98709e-06
4.11612e-06
4.18535e-06
2.58125e-06
2.62739e-06
3.35748e-06
3.9256e-06
3.55909e-06
4.14424e-06
3.52377e-06
3.99793e-06
3.72461e-06
2.52707e-06
2.58602e-06
3.96654e-06
4.09873e-06
4.16052e-06
2.37169e-06
2.27073e-06
2.32736e-06
4.18661e-06
4.25432e-06
4.43748e-06
4.4964e-06
2.61982e-06
2.65918e-06
3.63518e-06
4.2276e-06
3.88408e-06
4.44682e-06
3.79126e-06
4.27325e-06
4.01353e-06
2.57832e-06
2.61307e-06
4.23321e-06
4.42229e-06
4.44959e-06
2.37597e-06
2.32316e-06
2.3717e-06
4.51e-06
4.57328e-06
4.75922e-06
4.82648e-06
2.64931e-06
2.67645e-06
3.96457e-06
4.51074e-06
4.25384e-06
4.7339e-06
4.08572e-06
4.58348e-06
4.33943e-06
2.60424e-06
2.65344e-06
4.5271e-06
4.77209e-06
4.78765e-06
2.40026e-06
2.36018e-06
2.40098e-06
4.8406e-06
4.88541e-06
5.08601e-06
5.0594e-06
2.65443e-06
2.68569e-06
4.35025e-06
4.81004e-06
4.62894e-06
5.11547e-06
4.41308e-06
4.92837e-06
4.65386e-06
2.64163e-06
2.69586e-06
4.87233e-06
5.13825e-06
5.16934e-06
2.4508e-06
2.38545e-06
2.41981e-06
5.18167e-06
5.10423e-06
5.43521e-06
5.25308e-06
2.67031e-06
2.70235e-06
4.72085e-06
5.2128e-06
4.99059e-06
5.5245e-06
4.73706e-06
5.26912e-06
4.97591e-06
2.67996e-06
2.73353e-06
5.26943e-06
5.53652e-06
5.54063e-06
2.47648e-06
2.40278e-06
2.47708e-06
5.5247e-06
5.33141e-06
5.80287e-06
5.54115e-06
2.68181e-06
2.72128e-06
5.07465e-06
5.64133e-06
5.33562e-06
5.9714e-06
5.06984e-06
5.65927e-06
5.32479e-06
2.71712e-06
2.8314e-06
5.63511e-06
5.95303e-06
5.91393e-06
2.51697e-06
2.45655e-06
2.56421e-06
5.89138e-06
5.62204e-06
6.17016e-06
5.87942e-06
2.69889e-06
2.79034e-06
5.4479e-06
6.09523e-06
5.75067e-06
6.47025e-06
5.42489e-06
5.98162e-06
5.72323e-06
2.81108e-06
3.00144e-06
6.00815e-06
6.39038e-06
6.31437e-06
2.57892e-06
2.53542e-06
2.677e-06
6.26762e-06
5.96605e-06
6.53511e-06
6.24085e-06
2.76041e-06
2.8883e-06
5.83669e-06
6.59552e-06
6.16703e-06
6.9988e-06
5.81327e-06
6.28147e-06
6.13988e-06
2.97509e-06
3.21339e-06
6.42163e-06
6.89497e-06
6.76617e-06
2.67915e-06
2.638e-06
2.80581e-06
6.6255e-06
6.32989e-06
6.95674e-06
6.66298e-06
2.84726e-06
2.95391e-06
6.28276e-06
7.11291e-06
6.63743e-06
7.44099e-06
6.24648e-06
6.61667e-06
6.5781e-06
3.17904e-06
3.44015e-06
6.8777e-06
7.32282e-06
7.2135e-06
2.81057e-06
2.75699e-06
2.92345e-06
7.06038e-06
6.76535e-06
7.3335e-06
7.04064e-06
2.89733e-06
2.94011e-06
6.75608e-06
7.55789e-06
7.06707e-06
7.84574e-06
6.70493e-06
6.90482e-06
7.06888e-06
3.38964e-06
3.56717e-06
7.33255e-06
7.84893e-06
7.68988e-06
2.93877e-06
2.90661e-06
3.06136e-06
7.43625e-06
7.14925e-06
7.75963e-06
7.51357e-06
2.8957e-06
2.93569e-06
7.14247e-06
7.91832e-06
7.41422e-06
8.17228e-06
7.19265e-06
7.22729e-06
7.56289e-06
3.53434e-06
3.61505e-06
7.80086e-06
8.39493e-06
8.07149e-06
3.0687e-06
3.03339e-06
3.13523e-06
7.84828e-06
7.62153e-06
8.06895e-06
7.90445e-06
2.89419e-06
2.96874e-06
7.51486e-06
8.24371e-06
7.71828e-06
8.44124e-06
7.68904e-06
7.58631e-06
8.01706e-06
3.56506e-06
3.60871e-06
8.14293e-06
8.34587e-06
8.28692e-06
3.16984e-06
3.09734e-06
3.22612e-06
8.15725e-06
8.01345e-06
8.30478e-06
8.30477e-06
2.93823e-06
3.08923e-06
7.82641e-06
8.52612e-06
8.06504e-06
8.68125e-06
8.13508e-06
7.98276e-06
8.37812e-06
3.55226e-06
3.61285e-06
8.34821e-06
8.36551e-06
8.47192e-06
3.26403e-06
3.20227e-06
3.39885e-06
8.36906e-06
8.41422e-06
8.61557e-06
8.73751e-06
3.0793e-06
3.3929e-06
8.12278e-06
8.75784e-06
8.32683e-06
8.95023e-06
8.45247e-06
8.53124e-06
8.72283e-06
3.5606e-06
3.65904e-06
8.52364e-06
8.68279e-06
8.71827e-06
3.46631e-06
3.41056e-06
3.96962e-06
8.66608e-06
8.78999e-06
8.88967e-06
8.99894e-06
3.42063e-06
4.01025e-06
8.37768e-06
8.97819e-06
8.7089e-06
9.23361e-06
8.77498e-06
8.95275e-06
8.97939e-06
3.64201e-06
4.06298e-06
8.75957e-06
9.02373e-06
8.95741e-06
3.98931e-06
4.0712e-06
4.8737e-06
8.98999e-06
9.08834e-06
9.26313e-06
9.35114e-06
4.12178e-06
5.06931e-06
8.82662e-06
9.32894e-06
9.06244e-06
9.60499e-06
9.06887e-06
9.85267e-06
9.32196e-06
4.13064e-06
4.91395e-06
9.04591e-06
9.36968e-06
9.31456e-06
4.91279e-06
5.05626e-06
6.37714e-06
9.39214e-06
9.4825e-06
9.93953e-06
9.97609e-06
5.27283e-06
6.69917e-06
9.21363e-06
9.73323e-06
9.91506e-06
1.01413e-05
9.46562e-06
1.09821e-05
9.97122e-06
5.07581e-06
6.25205e-06
9.45233e-06
9.98403e-06
9.94631e-06
6.32099e-06
6.68844e-06
8.68379e-06
1.01579e-05
1.01434e-05
1.09314e-05
1.07251e-05
7.03245e-06
8.77293e-06
1.01627e-05
1.03155e-05
1.10178e-05
1.10148e-05
1.01366e-05
1.20676e-05
1.08218e-05
6.56096e-06
8.49816e-06
1.01101e-05
1.08399e-05
1.07514e-05
8.52649e-06
9.20043e-06
1.22508e-05
1.12574e-05
1.09962e-05
1.22729e-05
1.19987e-05
9.15589e-06
1.18076e-05
1.14254e-05
1.1291e-05
1.29338e-05
1.21662e-05
1.11291e-05
1.29435e-05
1.20662e-05
8.96915e-06
1.16833e-05
1.10465e-05
1.20435e-05
1.20007e-05
1.18101e-05
1.29653e-05
1.63341e-05
1.25805e-05
1.24002e-05
1.37183e-05
1.38571e-05
1.25282e-05
1.62998e-05
1.34484e-05
1.24909e-05
1.49431e-05
1.37792e-05
1.24138e-05
1.42868e-05
1.3727e-05
1.2356e-05
1.60631e-05
1.23542e-05
1.37347e-05
1.36788e-05
1.62533e-05
1.71543e-05
2.18457e-05
1.42281e-05
1.44064e-05
1.59664e-05
1.62105e-05
1.72313e-05
2.21787e-05
1.54224e-05
1.432e-05
1.66874e-05
1.60167e-05
1.42284e-05
1.62699e-05
1.58229e-05
1.70093e-05
2.18243e-05
1.41958e-05
1.58454e-05
1.58119e-05
2.18752e-05
2.30206e-05
2.89094e-05
1.66314e-05
1.69507e-05
1.8934e-05
1.96997e-05
2.33232e-05
2.8793e-05
1.71399e-05
1.66388e-05
1.89241e-05
1.8765e-05
1.64092e-05
1.86413e-05
1.85614e-05
2.29072e-05
2.83613e-05
1.64019e-05
1.85664e-05
1.85866e-05
2.83661e-05
3.0245e-05
3.63657e-05
1.97731e-05
2.06797e-05
2.23792e-05
2.31944e-05
3.00275e-05
3.57217e-05
1.96307e-05
1.95569e-05
2.19459e-05
2.20631e-05
1.9394e-05
2.15492e-05
2.19392e-05
2.96671e-05
3.59387e-05
1.94206e-05
2.20287e-05
2.19725e-05
3.59399e-05
3.78026e-05
4.45219e-05
2.33333e-05
2.3928e-05
2.65854e-05
2.65276e-05
3.70639e-05
4.36847e-05
2.28352e-05
2.29464e-05
2.60836e-05
2.60707e-05
2.28536e-05
2.60356e-05
2.62126e-05
3.73955e-05
4.39875e-05
2.29123e-05
2.61561e-05
2.62624e-05
4.42655e-05
4.60971e-05
5.28197e-05
2.77521e-05
2.75868e-05
3.14321e-05
3.11044e-05
4.53133e-05
5.23228e-05
2.73376e-05
2.72978e-05
3.13333e-05
3.11948e-05
2.75789e-05
3.12848e-05
3.20865e-05
4.55725e-05
5.24795e-05
2.75512e-05
3.1207e-05
3.17734e-05
5.31321e-05
5.43775e-05
6.07772e-05
3.27795e-05
3.23693e-05
3.75217e-05
3.66262e-05
5.38956e-05
6.02595e-05
3.2722e-05
3.25228e-05
3.71309e-05
3.68153e-05
3.35632e-05
3.71315e-05
3.77057e-05
5.40209e-05
6.03804e-05
3.32361e-05
3.71719e-05
3.76993e-05
6.03945e-05
6.22298e-05
6.76866e-05
3.93047e-05
3.82237e-05
4.44884e-05
4.3164e-05
6.17186e-05
6.7403e-05
3.86853e-05
3.8409e-05
4.33078e-05
4.33668e-05
3.91083e-05
4.33954e-05
4.35262e-05
6.18904e-05
6.77918e-05
3.92549e-05
4.39194e-05
4.39468e-05
6.72e-05
6.89462e-05
7.34369e-05
4.59684e-05
4.46979e-05
4.94875e-05
4.85842e-05
6.87302e-05
7.34308e-05
4.47309e-05
4.49052e-05
4.84389e-05
4.87556e-05
4.49564e-05
4.86202e-05
4.87332e-05
6.91109e-05
7.35617e-05
4.5389e-05
4.9004e-05
4.90833e-05
7.34894e-05
7.44442e-05
7.75586e-05
5.0465e-05
4.96898e-05
5.31366e-05
5.26402e-05
7.44564e-05
7.7543e-05
4.95344e-05
4.98419e-05
5.25162e-05
5.27333e-05
4.98436e-05
5.2712e-05
5.28052e-05
7.45311e-05
7.75224e-05
5.01536e-05
5.28436e-05
5.30077e-05
7.76818e-05
7.83191e-05
8.09982e-05
5.40089e-05
5.35773e-05
5.74256e-05
5.71463e-05
7.82941e-05
8.09501e-05
5.34685e-05
5.36516e-05
5.70849e-05
5.71911e-05
5.37243e-05
5.71743e-05
5.72147e-05
7.82746e-05
8.09708e-05
5.38982e-05
5.72752e-05
5.73107e-05
8.10243e-05
8.19118e-05
8.71657e-05
5.90934e-05
5.88546e-05
6.62809e-05
6.61452e-05
8.1863e-05
8.71261e-05
5.88083e-05
5.88999e-05
6.61264e-05
6.61956e-05
5.89033e-05
6.61475e-05
6.61623e-05
8.18889e-05
8.71672e-05
5.89769e-05
6.62296e-05
6.61873e-05
8.71477e-05
8.87144e-05
9.6726e-05
6.93976e-05
6.92901e-05
8.02667e-05
8.02195e-05
8.86805e-05
9.67128e-05
6.92752e-05
6.93387e-05
8.02062e-05
8.02524e-05
6.93018e-05
8.02125e-05
8.02251e-05
8.87194e-05
9.67373e-05
6.9317e-05
8.02573e-05
8.02221e-05
9.67203e-05
9.85757e-05
0.000107317
8.41724e-05
8.41369e-05
9.62929e-05
9.62759e-05
9.85655e-05
0.000107313
8.4125e-05
8.41646e-05
9.62705e-05
9.62917e-05
8.41442e-05
9.62749e-05
9.62908e-05
9.85863e-05
0.000107323
8.41376e-05
9.62972e-05
9.62802e-05
0.000107319
0.000109165
0.000117703
0.000100466
0.000100452
0.000112755
0.000112744
0.000109161
0.000117701
0.00010045
0.000100465
0.000112749
0.000112753
0.000100468
0.000112756
0.000112761
0.000109169
0.000117703
0.000100459
0.000112763
0.000112758
0.000117704
0.000119277
0.000124655
0.000116409
0.000116397
0.000124897
0.000124885
0.000119276
0.000124653
0.000116405
0.000116405
0.000124898
0.000124889
0.000116416
0.000124904
0.000124908
0.000119276
0.000124654
0.000116414
0.00012491
0.000124909
0.00012466
0.000125397
0.000127566
0.000126892
0.00012688
0.000130911
0.000130899
0.000125395
0.000127565
0.000126896
0.000126884
0.000130917
0.0001309
0.000126905
0.000130924
0.000130924
0.000125396
0.000127564
0.000126906
0.000130928
0.000130927
0.00012757
0.000127862
0.000128705
0.00013174
0.000131728
0.000133238
0.000133226
0.000127862
0.000128705
0.000131747
0.000131729
0.000133246
0.000133227
0.000131753
0.000133254
0.000133251
0.00012786
0.000128702
0.000131757
0.000133256
0.000133256
0.000128709
0.000128787
0.000129094
0.000133514
0.000133502
0.000133989
0.000133977
0.000128787
0.000129094
0.000133523
0.000133502
0.000133998
0.000133977
0.000133526
0.000134008
0.000134001
0.000128785
0.000129091
0.000133533
0.000134008
0.000134008
0.000129098
0.000129092
0.000129259
0.000134077
0.000134065
0.000134212
0.000134199
0.000129093
0.000129259
0.000134086
0.000134065
0.00013422
0.000134198
0.000134088
0.00013423
0.000134222
0.000129089
0.000129255
0.000134096
0.000134229
0.000134229
0.000129261
0.000129244
0.000129225
0.000134224
0.000134211
0.000134222
0.00013421
0.000129245
0.000129226
0.000134232
0.00013421
0.00013423
0.000134208
0.000134234
0.00013424
0.000134232
0.00012924
0.000129223
0.000134241
0.000134239
0.000134239
0.000129229
0.000129182
0.00012917
0.000134217
0.000134205
0.000134213
0.000134201
0.000129184
0.000129167
0.000134225
0.000134203
0.00013422
0.000134199
0.000134227
0.00013423
0.000134222
0.000129181
0.000129162
0.000134234
0.00013423
0.000134229
0.000129168
0.000129156
0.000129273
0.00013422
0.000134208
0.000134241
0.000134229
0.000129152
0.000129282
0.000134226
0.000134206
0.000134248
0.000134227
0.00013423
0.000134259
0.00013425
0.000129148
0.000129281
0.000134237
0.000134258
0.000134257
0.000129288
0.000129256
0.000129152
0.00013424
0.000134228
0.00013422
0.000134207
0.000129262
0.000129149
0.000134247
0.000134225
0.000134226
0.000134205
0.000134248
0.000134237
0.000134229
0.00012926
0.000129143
0.000134255
0.000134236
0.000134236
0.000129148
0.000129107
0.000129295
0.00013422
0.000134208
0.000134235
0.000134223
0.000129105
0.000129298
0.000134227
0.000134206
0.000134242
0.00013422
0.00013423
0.000134252
0.000134242
0.000129102
0.000129295
0.000134237
0.00013425
0.000134251
0.000129303
0.000129282
0.000129136
0.000134231
0.000134218
0.000134227
0.000134215
0.000129282
0.000129137
0.000134238
0.000134216
0.000134234
0.000134214
0.000134238
0.000134245
0.000134236
0.000129276
0.000129136
0.000134247
0.000134244
0.000134244
0.000129141
0.000129122
0.000129269
0.000134227
0.000134216
0.000134227
0.000134215
0.000129133
0.000129255
0.000134234
0.000134213
0.000134235
0.000134213
0.000134237
0.000134245
0.000134236
0.000129135
0.000129241
0.000134244
0.000134243
0.000134243
0.000129253
0.00012921
0.000129247
0.000134227
0.000134215
0.000134232
0.00013422
0.000129196
0.00012926
0.000134234
0.000134213
0.000134235
0.000134215
0.000134236
0.000134249
0.00013424
0.000129183
0.000129263
0.000134243
0.000134248
0.000134247
0.000129267
0.000129247
0.000129159
0.000134229
0.000134216
0.00013423
0.000134218
0.000129253
0.000129186
0.000134234
0.000134212
0.000134235
0.000134217
0.000134236
0.00013425
0.000134241
0.000129251
0.000129199
0.000134243
0.000134248
0.000134247
0.000129185
0.000129169
0.000129179
0.000134233
0.00013422
0.000134228
0.000134215
0.000129205
0.000129161
0.000134236
0.000134217
0.000134234
0.000134213
0.000134242
0.000134244
0.000134234
0.000129215
0.000129159
0.000134249
0.000134242
0.000134241
0.000129163
0.000129132
0.000129262
0.000134229
0.000134219
0.00013423
0.000134216
0.000129146
0.000129194
0.000134234
0.000134215
0.000134235
0.000134213
0.000134239
0.000134245
0.000134236
0.000129162
0.000129173
0.000134244
0.000134243
0.000134243
0.000129219
0.000129202
0.000129274
0.00013423
0.000134216
0.000134231
0.000134217
0.000129144
0.00012926
0.000134235
0.000134215
0.000134235
0.000134212
0.000134235
0.00013425
0.00013424
0.000129135
0.000129202
0.000134242
0.000134246
0.000134246
0.000129274
0.000129255
0.000129228
0.000134229
0.000134216
0.000134233
0.000134219
0.0001292
0.000129273
0.000134235
0.000134213
0.000134237
0.000134214
0.000134237
0.000134247
0.000134238
0.000129152
0.00012921
0.000134243
0.000134244
0.000134245
0.000129274
0.000129236
0.00012918
0.000134231
0.000134216
0.000134231
0.00013422
0.00012924
0.000129262
0.000134234
0.000134212
0.000134237
0.000134216
0.000134237
0.000134249
0.00013424
0.000129157
0.000129232
0.000134243
0.000134245
0.000134246
0.000129231
0.000129197
0.000129172
0.000134232
0.000134218
0.00013423
0.000134221
0.000129243
0.000129254
0.000134237
0.000134214
0.000134234
0.000134215
0.000134238
0.000134252
0.000134239
0.000129173
0.000129267
0.000134245
0.000134249
0.000134246
0.000129218
0.000129171
0.000129171
0.000134232
0.000134221
0.00013423
0.000134216
0.000129251
0.000129182
0.000134237
0.000134215
0.000134234
0.000134213
0.000134239
0.000134245
0.000134239
0.000129221
0.000129249
0.000134244
0.000134245
0.000134248
0.000129257
0.000129164
0.000129169
0.000134232
0.000134221
0.000134228
0.000134216
0.000129199
0.000129186
0.000134236
0.000134213
0.000134233
0.000134214
0.000134241
0.000134245
0.000134236
0.000129219
0.000129262
0.00013425
0.000134243
0.000134241
0.000129148
0.000129129
0.000129268
0.00013423
0.000134216
0.000134233
0.000134219
0.000129155
0.000129206
0.000134234
0.000134212
0.000134238
0.000134216
0.000134236
0.000134249
0.000134239
0.000129211
0.000129261
0.000134244
0.000134246
0.000134245
0.00012922
0.000129214
0.00012922
0.000134228
0.000134217
0.000134232
0.000134219
0.000129193
0.000129171
0.000134233
0.000134213
0.000134238
0.000134215
0.000134236
0.00013425
0.00013424
0.000129231
0.000129237
0.000134241
0.000134245
0.000134249
0.000129287
0.000129216
0.000129202
0.000134232
0.00013422
0.000134231
0.000134218
0.000129187
0.000129177
0.000134238
0.000134213
0.000134235
0.000134216
0.00013424
0.000134245
0.000134236
0.000129187
0.000129261
0.000134247
0.000134247
0.000134244
0.000129183
0.000129145
0.000129288
0.000134231
0.000134218
0.000134231
0.000134218
0.000129141
0.000129237
0.000134234
0.000134213
0.000134236
0.000134216
0.00013424
0.000134247
0.000134236
0.000129202
0.000129271
0.000134247
0.000134249
0.000134243
0.000129165
0.000129234
0.000129264
0.000134231
0.000134218
0.000134231
0.000134218
0.000129204
0.000129232
0.000134235
0.000134216
0.000134235
0.000134213
0.000134236
0.00013425
0.00013424
0.000129253
0.000129216
0.000134244
0.000134243
0.000134243
0.000129244
0.000129257
0.000129209
0.000134231
0.000134218
0.000134233
0.00013422
0.000129243
0.000129191
0.000134235
0.000134216
0.000134236
0.000134213
0.000134236
0.00013425
0.000134241
0.000129229
0.000129158
0.000134243
0.000134245
0.000134246
0.000129287
0.00012923
0.000129161
0.000134233
0.00013422
0.00013423
0.000134217
0.000129215
0.000129153
0.000134235
0.000134213
0.000134237
0.000134213
0.000134238
0.000134246
0.00013424
0.000129171
0.000129166
0.000134242
0.000134244
0.000134248
0.000129262
0.000129174
0.000129169
0.000134232
0.000134219
0.00013423
0.000134218
0.000129137
0.000129213
0.000134237
0.000134213
0.000134234
0.000134216
0.00013424
0.000134246
0.000134238
0.000129125
0.000129251
0.000134247
0.000134243
0.000134243
0.000129216
0.000129137
0.000129201
0.00013423
0.000134215
0.000134232
0.000134225
0.000129158
0.000129286
0.000134237
0.000134213
0.000134233
0.000134215
0.00013424
0.000134252
0.000134236
0.000129195
0.000129252
0.000134246
0.000134246
0.000134242
0.000129186
0.000129148
0.000129279
0.000134231
0.000134224
0.000134231
0.000134216
0.000129268
0.000129171
0.000134234
0.000134216
0.000134236
0.000134213
0.000134239
0.000134246
0.000134237
0.000129241
0.000129195
0.000134243
0.000134245
0.000134243
0.000129181
0.000129225
0.00012925
0.000134231
0.000134222
0.000134231
0.000134216
0.000129191
0.000129174
0.000134233
0.000134214
0.000134237
0.000134213
0.000134237
0.000134246
0.000134238
0.000129194
0.000129209
0.000134243
0.000134243
0.000134243
0.000129185
0.000129251
0.000129155
0.000134231
0.000134217
0.00013423
0.00013422
0.000129133
0.00012922
0.000134237
0.000134213
0.000134233
0.000134213
0.000134238
0.000134247
0.000134238
0.000129179
0.000129209
0.000134244
0.000134244
0.000134243
0.000129203
0.000129161
0.000129199
0.00013423
0.000134217
0.00013423
0.000134218
0.000129165
0.000129239
0.000134234
0.000134212
0.000134235
0.000134215
0.000134238
0.000134248
0.000134237
0.000129154
0.000129222
0.000134243
0.000134244
0.000134243
0.000129225
0.00012915
0.000129262
0.00013423
0.000134219
0.00013423
0.000134217
0.000129181
0.00012924
0.000134234
0.000134214
0.000134235
0.000134214
0.000134239
0.000134247
0.000134236
0.000129164
0.000129247
0.000134243
0.000134244
0.000134243
0.000129228
0.00012921
0.000129271
0.00013423
0.000134218
0.000134231
0.000134217
0.000129182
0.000129253
0.000134235
0.000134213
0.000134238
0.000134216
0.000134236
0.000134248
0.000134238
0.000129189
0.000129261
0.000134243
0.000134244
0.000134243
0.000129227
0.000129241
0.000129248
0.000134231
0.000134217
0.000134231
0.000134218
0.000129195
0.000129262
0.000134235
0.000134213
0.000134237
0.000134216
0.000134237
0.000134247
0.000134238
0.000129214
0.00012926
0.000134243
0.000134245
0.000134244
0.000129243
0.000129242
0.000129208
0.000134231
0.000134217
0.00013423
0.000134217
0.000129213
0.000129264
0.000134239
0.000134216
0.000134233
0.000134213
0.000134237
0.000134247
0.000134237
0.000129233
0.000129245
0.000134243
0.000134245
0.000134244
0.000129259
0.000129213
0.000129226
0.000134231
0.000134217
0.000134231
0.000134217
0.000129218
0.000129271
0.000134235
0.000134214
0.000134234
0.000134214
0.000134237
0.000134246
0.000134237
0.00012923
0.000129245
0.000134243
0.000134242
0.000134242
0.000129255
0.000129224
0.000129256
0.000134231
0.000134217
0.000134232
0.000134218
0.000129231
0.000129266
0.000134234
0.000134214
0.000134235
0.000134214
0.000134237
0.000134246
0.000134236
0.000129226
0.000129256
0.000134243
0.000134242
0.000134242
0.000129241
0.000129246
0.000129232
0.000134231
0.000134218
0.000134231
0.000134217
0.000129248
0.00012923
0.000134235
0.000134214
0.000134234
0.000134213
0.000134237
0.000134246
0.000134236
0.000129235
0.00012924
0.000134243
0.000134244
0.000134241
0.00012924
0.000129236
0.000129197
0.000134232
0.000134219
0.00013423
0.000134216
0.000129234
0.000129182
0.000134235
0.000134214
0.000134233
0.000134212
0.000134237
0.000134245
0.000134236
0.000129235
0.000129207
0.000134243
0.000134243
0.000134241
0.000129236
0.000129213
0.000129175
0.000134232
0.000134219
0.000134229
0.000134216
0.000129194
0.000129188
0.000134235
0.000134214
0.000134232
0.000134211
0.000134237
0.000134245
0.000134235
0.000129212
0.000129209
0.000134242
0.000134241
0.000134241
0.000129215
0.000129184
0.000129181
0.000134232
0.000134218
0.000134229
0.000134216
0.000129182
0.000129221
0.000134235
0.000134213
0.000134232
0.000134212
0.000134237
0.000134246
0.000134235
0.00012921
0.000129242
0.000134242
0.000134242
0.000134241
0.000129211
0.000129181
0.00012921
0.000134231
0.000134218
0.00013423
0.000134217
0.000129224
0.000129227
0.000134235
0.000134213
0.000134232
0.000134212
0.000134237
0.000134245
0.000134235
0.000129231
0.000129241
0.000134242
0.000134243
0.000134241
0.000129234
0.000129213
0.000129236
0.000134233
0.000134219
0.000134228
0.000134216
0.000129228
0.000129225
0.000134235
0.000134214
0.000134232
0.000134211
0.000134238
0.000134244
0.000134235
0.000129235
0.000129216
0.000134243
0.00013424
0.00013424
0.000129249
0.00012923
0.000129241
0.000134233
0.000134221
0.000134228
0.000134215
0.000129226
0.000129233
0.000134236
0.000134216
0.000134232
0.000134211
0.000134238
0.000134244
0.000134235
0.000129223
0.00012919
0.000134244
0.00013424
0.000134239
0.000129229
0.000129231
0.000129257
0.000134232
0.000134219
0.00013423
0.000134217
0.000129232
0.000129232
0.000134237
0.000134216
0.000134233
0.000134211
0.000134239
0.000134245
0.000134234
0.000129205
0.000129172
0.000134245
0.000134241
0.000134239
0.000129202
0.000129238
0.000129257
0.000134234
0.000134221
0.00013423
0.000134217
0.000129233
0.000129218
0.000134238
0.000134217
0.000134234
0.000134212
0.00013424
0.000134246
0.000134236
0.000129179
0.000129182
0.000134245
0.000134241
0.000134241
0.000129206
0.000129249
0.000129221
0.000134238
0.000134225
0.00013423
0.000134217
0.000129224
0.000129213
0.000134241
0.000134219
0.000134236
0.000134214
0.000134243
0.000134248
0.000134238
0.000129162
0.000129226
0.000134248
0.000134244
0.000134243
0.000129228
0.000129232
0.000129185
0.00013424
0.000134227
0.000134236
0.000134223
0.000129216
0.00012924
0.000134246
0.000134224
0.000134239
0.000134219
0.000134247
0.000134252
0.000134242
0.000129207
0.000129256
0.000134252
0.000134249
0.000134247
0.000129238
0.000129199
0.000129187
0.000134249
0.000134235
0.000134244
0.000134232
0.000129233
0.000129259
0.000134253
0.000134231
0.000134248
0.000134228
0.000134254
0.000134261
0.000134251
0.000129244
0.000129228
0.000134259
0.000134257
0.000134256
0.000129233
0.000129181
0.000129196
0.000134262
0.000134249
0.000134258
0.000134247
0.00012925
0.000129239
0.000134265
0.000134245
0.000134263
0.000134243
0.000134267
0.000134275
0.000134265
0.000129235
0.000129189
0.000134273
0.000134271
0.000134272
0.000129219
0.000129181
0.000129303
0.000134236
0.000134225
0.0001348
0.000134791
0.000129237
0.000129311
0.000134241
0.00013422
0.000134807
0.000134785
0.000134242
0.00013482
0.000134806
0.000129184
0.000129298
0.000134249
0.000134814
0.000134815
0.000129303
0.000129621
0.000133399
0.00013339
0.000129631
0.000133407
0.000133384
0.000128072
0.000128068
0.000128077
0.000133404
0.000129614
0.000133414
6.49945e-05
9.41364e-06
4.38096e-05
4.37358e-05
4.91619e-07
2.64707e-06
1.5907e-06
2.67581e-05
6.25359e-07
2.66238e-06
2.68701e-05
1.5491e-06
2.29436e-06
1.70105e-06
1.69431e-06
1.12489e-06
1.35406e-05
1.00922e-06
1.50895e-05
1.0819e-05
1.30398e-05
1.0742e-06
1.35191e-05
9.51988e-07
1.51445e-05
2.48785e-05
2.49927e-05
2.48201e-05
2.46912e-05
2.48123e-05
2.49301e-05
2.47608e-05
4.64596e-07
5.23068e-07
1.15299e-05
2.91491e-06
4.70715e-07
6.46749e-07
1.14439e-05
1.096e-05
1.32119e-05
5.92309e-07
1.16264e-05
4.84521e-07
2.89479e-06
5.99554e-07
1.15461e-05
5.99826e-07
1.40398e-06
1.49071e-06
2.24589e-06
1.59887e-06
1.70397e-06
1.30828e-06
1.85959e-05
1.23934e-06
2.08115e-05
1.70845e-05
1.92504e-05
1.28799e-06
1.87003e-05
1.2286e-06
2.07977e-05
2.5005e-05