/*--------------------------------*- C++ -*----------------------------------*\
| =========                 |                                                 |
| \\      /  F ield         | OpenFOAM: The Open Source CFD Toolbox           |
|  \\    /   O peration     | Version:  v1906                                 |
|   \\  /    A nd           | Web:      www.OpenFOAM.com                      |
|    \\/     M anipulation  |                                                 |
\*---------------------------------------------------------------------------*/
FoamFile
{
    version     2.0;
    format      ascii;
    class       volScalarField;
    location    "162.5";
    object      p;
}
// * * * * * * * * * * * * * * * * * * * * * * * * * * * * * * * * * * * * * //

dimensions      [0 2 -2 0 0 0 0];


internalField   nonuniform List<scalar> 
171728
(
0.00352216
0.00352148
0.00352144
0.00352269
0.00348605
0.00348475
0.00348486
0.00348787
0.00344898
0.00344731
0.00344728
0.00344965
0.00340432
0.00340296
0.00340297
0.00340543
0.00335605
0.0033547
0.00335472
0.00335733
0.00330782
0.0033066
0.00330657
0.00330915
0.00325985
0.00325874
0.00325874
0.00326134
0.00321262
0.0032116
0.0032116
0.00321422
0.00316649
0.00316556
0.00316555
0.00316818
0.00312127
0.00312042
0.00312043
0.00312306
0.00307699
0.00307623
0.00307622
0.00307886
0.00303341
0.00303275
0.00303275
0.00303538
0.00299042
0.00298982
0.00298981
0.00299242
0.00294778
0.00294725
0.00294726
0.00294985
0.00290545
0.002905
0.00290501
0.00290762
0.00286344
0.00286303
0.00286304
0.00286561
0.00282176
0.00282138
0.0028214
0.00282393
0.00278042
0.00278007
0.00278007
0.00278257
0.00273944
0.00273911
0.0027391
0.00274155
0.0026988
0.0026985
0.00269848
0.00270085
0.0026585
0.00265819
0.00265819
0.00266048
0.00261851
0.00261818
0.00261821
0.00262044
0.00257883
0.00257849
0.00257852
0.00258076
0.00253939
0.00253919
0.00253915
0.00254145
0.00250034
0.00250008
0.00250006
0.00250242
0.00246155
0.0024613
0.0024613
0.00246372
0.00242305
0.0024228
0.00242283
0.00242532
0.00238489
0.00238469
0.00238468
0.00238718
0.00234713
0.00234697
0.00234695
0.00234947
0.00230984
0.00230968
0.00230967
0.00231201
0.00227339
0.00227326
0.00227326
0.00227551
0.0022378
0.00223776
0.00223775
0.00223992
0.00220266
0.00220277
0.00220276
0.00220484
0.0021675
0.00216763
0.00216763
0.00216962
0.00213186
0.00213195
0.00213195
0.00213398
0.00209573
0.00209578
0.00209578
0.00209783
0.00205962
0.00205959
0.00205959
0.00206161
0.00202388
0.00202371
0.00202371
0.00202569
0.00198855
0.00198822
0.00198822
0.00199017
0.00195331
0.0019529
0.0019529
0.00195485
0.00191787
0.00191757
0.00191757
0.00191956
0.00188237
0.00188221
0.00188221
0.00188424
0.00184685
0.00184676
0.00184677
0.00184882
0.0018113
0.00181125
0.00181125
0.00181332
0.00177573
0.00177569
0.00177569
0.00177776
0.00174015
0.00174012
0.00174012
0.00174219
0.00170458
0.00170455
0.00170455
0.00170663
0.00166901
0.00166898
0.00166898
0.00167105
0.00163344
0.00163341
0.00163341
0.00163548
0.00159787
0.00159783
0.00159783
0.00159991
0.0015623
0.00156226
0.00156226
0.00156434
0.00152673
0.0015267
0.0015267
0.00152877
0.00149116
0.00149112
0.00149112
0.0014932
0.00145559
0.00145556
0.00145556
0.00145763
0.00142002
0.00141999
0.00141999
0.00142206
0.00138445
0.00138442
0.00138442
0.00138649
0.00134888
0.00134885
0.00134885
0.00135092
0.00131331
0.00131328
0.00131328
0.00131535
0.00127774
0.00127771
0.00127771
0.00127978
0.00124217
0.00124214
0.00124214
0.00124421
0.0012066
0.00120657
0.00120657
0.00120864
0.00117103
0.001171
0.001171
0.00117307
0.00113546
0.00113543
0.00113543
0.0011375
0.00109989
0.00109986
0.00109986
0.00110193
0.00106432
0.00106429
0.00106429
0.00106636
0.00102875
0.00102872
0.00102872
0.00103079
0.00099318
0.000993145
0.000993148
0.00099522
0.00095761
0.000957577
0.000957576
0.000959648
0.00092204
0.000922009
0.000922007
0.000924079
0.00088647
0.000886438
0.000886438
0.000888511
0.0008509
0.000850868
0.000850867
0.000852942
0.00081533
0.000815299
0.000815297
0.000817372
0.000779759
0.000779727
0.000779727
0.000781801
0.000744189
0.000744155
0.000744155
0.00074623
0.000708617
0.000708584
0.000708583
0.000710659
0.000673046
0.000673012
0.000673013
0.000675087
0.000637475
0.00063744
0.000637442
0.000639516
0.000601904
0.000601869
0.000601869
0.000603943
0.000566332
0.000566299
0.000566298
0.000568372
0.000530761
0.000530727
0.000530729
0.000532801
0.00049519
0.000495156
0.000495157
0.00049723
0.000459618
0.000459585
0.000459584
0.000461658
0.000424047
0.000424015
0.000424015
0.000426087
0.000388476
0.000388443
0.000388443
0.000390516
0.000352905
0.000352871
0.00035287
0.000354944
0.000317334
0.000317301
0.000317301
0.000319372
0.000281763
0.000281732
0.000281733
0.0002838
0.000246193
0.00024616
0.000246162
0.000248227
0.000210622
0.000210589
0.00021059
0.000212653
0.000175049
0.000175018
0.000175018
0.000177074
0.000139473
0.000139444
0.000139443
0.000141488
0.000103885
0.000103865
0.000103864
0.000105889
6.83107e-05
6.82804e-05
6.82801e-05
7.02746e-05
3.35948e-05
3.315e-05
3.31481e-05
3.48678e-05
4.91444e-06
4.67146e-06
4.6729e-06
4.17577e-06
0.00352765
0.00352583
0.00352586
0.00352766
0.00352583
0.0035259
0.00353093
0.00353093
0.00353095
0.00353096
0.0035259
0.00352585
0.0035277
0.00352589
0.00352586
0.00352769
0.00352266
0.00349248
0.00352144
0.00352148
0.00349414
0.00349407
0.00352272
0.0034924
0.00352143
0.00352143
0.00349417
0.00349418
0.00352146
0.00349418
0.0034942
0.00352267
0.00349247
0.00352147
0.00349416
0.00349416
0.00349247
0.00348788
0.00345509
0.00348485
0.00348483
0.00345731
0.00345725
0.00348789
0.00345504
0.00348481
0.00348482
0.00345732
0.00345735
0.00348485
0.00345734
0.0034573
0.00348788
0.0034551
0.00348483
0.00345729
0.00345731
0.00345508
0.00344966
0.00341164
0.00344729
0.00344739
0.00341469
0.00341467
0.00344964
0.00341159
0.00344729
0.00344724
0.00341467
0.00341472
0.00344725
0.00341469
0.0034147
0.00344966
0.00341165
0.00344727
0.0034147
0.00341467
0.00341165
0.00340544
0.00336372
0.00340299
0.003403
0.00336682
0.00336681
0.0034054
0.00336371
0.003403
0.00340297
0.00336682
0.00336686
0.00340293
0.00336684
0.00336681
0.00340545
0.00336372
0.00340299
0.00336684
0.0033668
0.00336372
0.00335733
0.00331548
0.00335471
0.00335472
0.00331856
0.00331856
0.00335732
0.00331548
0.00335472
0.00335472
0.00331857
0.00331858
0.00335471
0.00331858
0.00331856
0.00335734
0.00331548
0.00335474
0.00331857
0.00331857
0.00331548
0.00330916
0.0032676
0.00330658
0.00330659
0.00327067
0.00327066
0.00330916
0.00326759
0.00330659
0.00330659
0.00327068
0.00327068
0.00330657
0.00327066
0.00327065
0.00330917
0.00326761
0.00330656
0.00327067
0.00327065
0.0032676
0.00326133
0.00322036
0.00325872
0.00325873
0.00322328
0.00322329
0.00326133
0.00322035
0.00325872
0.00325875
0.00322327
0.00322328
0.00325874
0.00322329
0.00322328
0.00326135
0.00322035
0.00325874
0.00322328
0.00322328
0.00322034
0.00321423
0.00317416
0.00321159
0.0032116
0.00317697
0.00317697
0.00321423
0.00317416
0.0032116
0.00321161
0.00317696
0.00317697
0.0032116
0.00317698
0.00317697
0.00321424
0.00317416
0.00321161
0.00317697
0.00317696
0.00317417
0.00316818
0.00312892
0.00316556
0.00316556
0.00313161
0.00313162
0.00316818
0.00312892
0.00316555
0.00316555
0.0031316
0.00313162
0.00316553
0.00313161
0.0031316
0.00316819
0.00312892
0.00316555
0.00313161
0.00313161
0.00312892
0.00312307
0.00308459
0.00312042
0.00312042
0.0030872
0.0030872
0.00312306
0.0030846
0.00312043
0.00312043
0.00308719
0.00308721
0.0031204
0.0030872
0.00308719
0.00312307
0.0030846
0.00312042
0.00308721
0.0030872
0.00308459
0.00307885
0.00304102
0.00307622
0.00307622
0.00304356
0.00304355
0.00307886
0.00304102
0.00307623
0.00307623
0.00304355
0.00304357
0.00307623
0.00304355
0.00304356
0.00307886
0.00304102
0.00307622
0.00304357
0.00304357
0.00304103
0.00303536
0.00299803
0.00303273
0.00303274
0.00300051
0.0030005
0.00303537
0.002998
0.00303273
0.00303276
0.0030005
0.0030005
0.00303274
0.0030005
0.00300049
0.00303538
0.002998
0.00303274
0.00300049
0.00300049
0.00299799
0.00299245
0.00295538
0.00298982
0.00298981
0.00295786
0.00295787
0.00299243
0.00295536
0.0029898
0.00298981
0.00295786
0.00295787
0.00298981
0.00295787
0.00295786
0.00299243
0.00295539
0.00298981
0.00295787
0.00295786
0.00295538
0.00294986
0.00291307
0.00294727
0.00294725
0.00291554
0.00291554
0.00294984
0.00291307
0.00294726
0.00294727
0.00291554
0.00291554
0.00294725
0.00291554
0.00291554
0.00294987
0.00291307
0.00294725
0.00291554
0.00291554
0.00291309
0.00290759
0.00287105
0.002905
0.00290499
0.0028735
0.0028735
0.00290758
0.00287104
0.002905
0.00290501
0.00287349
0.00287351
0.002905
0.0028735
0.0028735
0.0029076
0.00287104
0.00290501
0.0028735
0.00287349
0.00287103
0.00286562
0.00282931
0.00286304
0.00286303
0.00283177
0.00283178
0.00286562
0.0028293
0.00286303
0.00286304
0.00283177
0.00283179
0.00286303
0.00283178
0.00283178
0.00286561
0.00282931
0.00286303
0.00283178
0.00283178
0.00282931
0.00282394
0.00278789
0.00282139
0.00282138
0.00279037
0.00279038
0.00282393
0.0027879
0.00282139
0.0028214
0.00279036
0.00279037
0.0028214
0.00279039
0.00279038
0.00282394
0.00278788
0.0028214
0.00279037
0.00279038
0.00278789
0.00278257
0.00274679
0.00278008
0.00278008
0.00274932
0.00274932
0.00278259
0.00274681
0.00278007
0.00278007
0.00274932
0.00274931
0.00278008
0.00274933
0.00274931
0.00278256
0.0027468
0.00278008
0.00274931
0.00274931
0.00274681
0.00274152
0.00270605
0.0027391
0.00273911
0.00270861
0.00270861
0.00274155
0.00270604
0.0027391
0.0027391
0.0027086
0.0027086
0.00273911
0.00270862
0.00270861
0.00274154
0.00270605
0.0027391
0.00270861
0.0027086
0.00270605
0.00270084
0.00266564
0.00269848
0.00269849
0.00266822
0.00266822
0.00270084
0.0026656
0.00269847
0.00269848
0.00266823
0.00266825
0.00269848
0.00266821
0.00266822
0.00270085
0.00266564
0.00269848
0.00266823
0.00266823
0.00266563
0.00266049
0.00262556
0.00265817
0.00265818
0.00262817
0.00262815
0.00266047
0.00262554
0.00265817
0.00265819
0.00262819
0.00262817
0.00265818
0.00262818
0.00262816
0.00266048
0.00262556
0.00265819
0.00262818
0.00262817
0.00262554
0.00262045
0.00258585
0.0026182
0.00261817
0.00258842
0.00258842
0.00262041
0.00258579
0.00261821
0.00261821
0.00258845
0.00258843
0.00261819
0.00258836
0.00258841
0.00262048
0.00258582
0.0026182
0.00258842
0.00258842
0.00258581
0.00258081
0.00254636
0.00257853
0.00257853
0.00254894
0.00254897
0.00258075
0.00254646
0.00257857
0.00257852
0.00254893
0.00254895
0.00257852
0.002549
0.00254898
0.00258074
0.00254645
0.00257853
0.00254897
0.00254897
0.00254646
0.00254135
0.00250741
0.00253913
0.00253916
0.00250981
0.00250984
0.00254144
0.00250743
0.00253909
0.00253915
0.00250978
0.00250981
0.00253917
0.00250983
0.00250982
0.00254144
0.00250738
0.00253916
0.00250981
0.00250981
0.0025074
0.00250244
0.00246867
0.00250007
0.0025001
0.00247096
0.00247098
0.00250246
0.00246868
0.00250006
0.00250006
0.00247098
0.00247095
0.00250008
0.00247097
0.00247097
0.00250239
0.00246868
0.00250007
0.00247096
0.00247096
0.00246868
0.00246373
0.00243026
0.0024613
0.00246129
0.00243243
0.00243238
0.00246371
0.00243019
0.00246131
0.0024613
0.00243242
0.00243243
0.00246131
0.00243239
0.00243243
0.00246374
0.00243023
0.0024613
0.00243242
0.00243243
0.00243024
0.00242533
0.00239209
0.00242283
0.0024228
0.00239418
0.00239419
0.00242528
0.00239208
0.00242283
0.00242283
0.00239418
0.00239418
0.00242283
0.00239418
0.00239419
0.0024253
0.00239207
0.00242284
0.00239418
0.00239419
0.00239207
0.00238721
0.00235433
0.0023847
0.0023847
0.00235638
0.00235637
0.00238719
0.00235432
0.00238469
0.00238469
0.00235637
0.00235636
0.00238469
0.00235636
0.00235636
0.00238719
0.00235433
0.00238468
0.00235635
0.00235637
0.00235434
0.00234946
0.00231691
0.00234698
0.00234697
0.00231896
0.00231894
0.00234946
0.00231692
0.00234697
0.00234696
0.00231894
0.00231893
0.00234696
0.00231894
0.0023189
0.00234946
0.0023169
0.00234697
0.00231893
0.00231889
0.00231683
0.0023121
0.00228022
0.0023097
0.00230968
0.00228227
0.00228227
0.00231211
0.00228024
0.00230969
0.00230968
0.00228228
0.00228228
0.00230963
0.00228227
0.00228223
0.00231209
0.00228024
0.00230962
0.00228228
0.00228224
0.00228019
0.00227551
0.00224445
0.00227325
0.00227326
0.00224654
0.00224655
0.00227554
0.00224449
0.00227326
0.00227327
0.00224652
0.00224655
0.00227323
0.00224656
0.00224656
0.00227554
0.00224449
0.00227324
0.00224656
0.00224657
0.00224452
0.00223985
0.00220939
0.00223773
0.00223775
0.00221148
0.00221149
0.00223989
0.0022094
0.00223772
0.00223775
0.00221149
0.0022115
0.00223777
0.0022115
0.00221153
0.00223988
0.00220939
0.00223777
0.0022115
0.00221152
0.00220943
0.00220481
0.00217427
0.00220275
0.00220276
0.00217645
0.00217645
0.00220481
0.00217426
0.00220277
0.00220276
0.00217647
0.00217645
0.00220279
0.00217645
0.00217646
0.00220481
0.00217426
0.00220278
0.00217645
0.00217646
0.00217427
0.00216963
0.0021387
0.00216763
0.00216763
0.00214094
0.00214093
0.00216962
0.0021387
0.00216764
0.00216763
0.00214094
0.00214093
0.00216763
0.00214093
0.00214093
0.00216962
0.0021387
0.00216763
0.00214093
0.00214093
0.00213869
0.00213399
0.0021026
0.00213196
0.00213196
0.00210485
0.00210485
0.00213398
0.0021026
0.00213196
0.00213195
0.00210485
0.00210485
0.00213195
0.00210485
0.00210485
0.00213398
0.0021026
0.00213195
0.00210485
0.00210484
0.0021026
0.00209783
0.00206636
0.00209578
0.00209578
0.00206861
0.00206861
0.00209783
0.00206636
0.00209578
0.00209578
0.00206862
0.00206862
0.00209578
0.00206861
0.00206862
0.00209783
0.00206636
0.00209578
0.00206861
0.00206862
0.00206636
0.00206161
0.00203041
0.00205959
0.00205959
0.00203264
0.00203264
0.00206161
0.00203041
0.00205959
0.00205959
0.00203264
0.00203264
0.00205959
0.00203264
0.00203264
0.00206161
0.00203041
0.00205959
0.00203264
0.00203264
0.00203041
0.00202569
0.00199486
0.00202371
0.00202371
0.00199706
0.00199706
0.00202569
0.00199486
0.00202371
0.00202371
0.00199706
0.00199706
0.00202371
0.00199706
0.00199706
0.00202569
0.00199486
0.00202371
0.00199706
0.00199706
0.00199486
0.00199017
0.00195955
0.00198822
0.00198822
0.00196173
0.00196173
0.00199017
0.00195955
0.00198822
0.00198822
0.00196173
0.00196173
0.00198822
0.00196173
0.00196173
0.00199017
0.00195955
0.00198822
0.00196173
0.00196173
0.00195955
0.00195485
0.00192426
0.0019529
0.0019529
0.00192639
0.00192639
0.00195485
0.00192426
0.0019529
0.0019529
0.00192639
0.00192639
0.0019529
0.0019264
0.00192639
0.00195485
0.00192426
0.0019529
0.0019264
0.00192639
0.00192426
0.00191956
0.00188896
0.00191757
0.00191757
0.00189106
0.00189106
0.00191956
0.00188896
0.00191757
0.00191757
0.00189106
0.00189106
0.00191757
0.00189106
0.00189106
0.00191956
0.00188896
0.00191757
0.00189106
0.00189106
0.00188896
0.00188424
0.00185356
0.00188221
0.00188221
0.00185563
0.00185563
0.00188424
0.00185356
0.00188221
0.00188221
0.00185564
0.00185563
0.00188221
0.00185563
0.00185563
0.00188424
0.00185356
0.00188221
0.00185563
0.00185563
0.00185356
0.00184882
0.00181806
0.00184677
0.00184676
0.00182013
0.00182013
0.00184882
0.00181806
0.00184677
0.00184677
0.00182013
0.00182013
0.00184677
0.00182013
0.00182013
0.00184882
0.00181806
0.00184677
0.00182013
0.00182013
0.00181806
0.00181332
0.00178251
0.00181125
0.00181125
0.00178458
0.00178458
0.00181332
0.00178251
0.00181125
0.00181125
0.00178458
0.00178458
0.00181125
0.00178458
0.00178458
0.00181332
0.00178251
0.00181125
0.00178458
0.00178458
0.00178251
0.00177776
0.00174694
0.00177569
0.00177569
0.00174901
0.00174901
0.00177776
0.00174694
0.00177569
0.00177569
0.00174901
0.00174901
0.00177569
0.00174901
0.00174901
0.00177776
0.00174694
0.00177569
0.00174901
0.00174901
0.00174694
0.00174219
0.00171137
0.00174012
0.00174012
0.00171344
0.00171344
0.00174219
0.00171137
0.00174012
0.00174012
0.00171344
0.00171344
0.00174012
0.00171344
0.00171344
0.00174219
0.00171137
0.00174012
0.00171344
0.00171344
0.00171137
0.00170662
0.0016758
0.00170455
0.00170455
0.00167787
0.00167787
0.00170662
0.0016758
0.00170455
0.00170455
0.00167787
0.00167787
0.00170455
0.00167787
0.00167787
0.00170663
0.0016758
0.00170455
0.00167787
0.00167787
0.0016758
0.00167105
0.00164023
0.00166898
0.00166898
0.0016423
0.0016423
0.00167105
0.00164023
0.00166898
0.00166898
0.0016423
0.0016423
0.00166898
0.0016423
0.0016423
0.00167105
0.00164023
0.00166898
0.0016423
0.0016423
0.00164023
0.00163548
0.00160466
0.00163341
0.00163341
0.00160673
0.00160673
0.00163548
0.00160466
0.00163341
0.00163341
0.00160673
0.00160673
0.00163341
0.00160673
0.00160673
0.00163548
0.00160466
0.00163341
0.00160673
0.00160673
0.00160466
0.00159991
0.00156909
0.00159783
0.00159783
0.00157116
0.00157116
0.00159991
0.00156909
0.00159783
0.00159783
0.00157116
0.00157116
0.00159783
0.00157116
0.00157116
0.00159991
0.00156909
0.00159783
0.00157116
0.00157116
0.00156909
0.00156434
0.00153352
0.00156226
0.00156226
0.00153559
0.00153559
0.00156434
0.00153352
0.00156226
0.00156226
0.00153559
0.00153559
0.00156226
0.00153559
0.00153559
0.00156434
0.00153352
0.00156226
0.00153559
0.00153559
0.00153352
0.00152877
0.00149795
0.0015267
0.0015267
0.00150002
0.00150002
0.00152877
0.00149795
0.0015267
0.0015267
0.00150002
0.00150002
0.0015267
0.00150002
0.00150002
0.00152877
0.00149795
0.0015267
0.00150002
0.00150002
0.00149795
0.0014932
0.00146238
0.00149112
0.00149112
0.00146445
0.00146445
0.0014932
0.00146238
0.00149113
0.00149112
0.00146445
0.00146445
0.00149112
0.00146445
0.00146445
0.0014932
0.00146238
0.00149112
0.00146445
0.00146445
0.00146238
0.00145763
0.00142681
0.00145556
0.00145556
0.00142888
0.00142888
0.00145763
0.00142681
0.00145556
0.00145556
0.00142888
0.00142888
0.00145556
0.00142888
0.00142888
0.00145763
0.00142681
0.00145556
0.00142888
0.00142888
0.00142681
0.00142206
0.00139124
0.00141999
0.00141999
0.00139331
0.00139331
0.00142206
0.00139124
0.00141999
0.00141999
0.00139331
0.00139331
0.00141999
0.00139331
0.00139331
0.00142206
0.00139124
0.00141999
0.00139331
0.00139331
0.00139124
0.00138649
0.00135567
0.00138442
0.00138442
0.00135774
0.00135774
0.00138649
0.00135567
0.00138442
0.00138442
0.00135774
0.00135774
0.00138442
0.00135774
0.00135774
0.00138649
0.00135567
0.00138442
0.00135774
0.00135774
0.00135567
0.00135092
0.0013201
0.00134885
0.00134885
0.00132217
0.00132217
0.00135092
0.0013201
0.00134885
0.00134885
0.00132217
0.00132217
0.00134885
0.00132217
0.00132217
0.00135092
0.0013201
0.00134885
0.00132217
0.00132217
0.0013201
0.00131535
0.00128454
0.00131328
0.00131328
0.00128661
0.0012866
0.00131535
0.00128453
0.00131328
0.00131328
0.0012866
0.0012866
0.00131328
0.0012866
0.0012866
0.00131535
0.00128453
0.00131328
0.0012866
0.0012866
0.00128453
0.00127978
0.00124896
0.00127771
0.00127771
0.00125103
0.00125103
0.00127978
0.00124896
0.00127771
0.00127771
0.00125103
0.00125103
0.00127771
0.00125103
0.00125103
0.00127978
0.00124896
0.00127771
0.00125103
0.00125103
0.00124896
0.00124422
0.00121339
0.00124214
0.00124214
0.00121546
0.00121546
0.00124421
0.00121339
0.00124214
0.00124214
0.00121546
0.00121546
0.00124214
0.00121546
0.00121546
0.00124421
0.00121339
0.00124214
0.00121546
0.00121546
0.00121339
0.00120864
0.00117782
0.00120657
0.00120657
0.00117989
0.00117989
0.00120864
0.00117782
0.00120657
0.00120657
0.00117989
0.00117989
0.00120657
0.00117989
0.00117989
0.00120864
0.00117782
0.00120657
0.00117989
0.00117989
0.00117782
0.00117307
0.00114225
0.001171
0.001171
0.00114432
0.00114432
0.00117307
0.00114225
0.001171
0.001171
0.00114432
0.00114432
0.001171
0.00114432
0.00114432
0.00117307
0.00114225
0.001171
0.00114432
0.00114432
0.00114225
0.0011375
0.00110668
0.00113543
0.00113543
0.00110875
0.00110875
0.0011375
0.00110668
0.00113543
0.00113543
0.00110875
0.00110875
0.00113543
0.00110875
0.00110875
0.0011375
0.00110668
0.00113543
0.00110875
0.00110875
0.00110668
0.00110193
0.00107111
0.00109986
0.00109986
0.00107318
0.00107318
0.00110193
0.00107111
0.00109986
0.00109986
0.00107318
0.00107318
0.00109986
0.00107318
0.00107318
0.00110193
0.00107111
0.00109986
0.00107318
0.00107318
0.00107111
0.00106636
0.00103554
0.00106429
0.00106429
0.00103761
0.00103761
0.00106636
0.00103554
0.00106429
0.00106429
0.00103761
0.00103761
0.00106429
0.00103761
0.00103761
0.00106636
0.00103554
0.00106429
0.00103761
0.00103761
0.00103554
0.00103079
0.000999969
0.00102872
0.00102872
0.00100204
0.00100204
0.00103079
0.00099997
0.00102872
0.00102872
0.00100204
0.00100204
0.00102872
0.00100204
0.00100204
0.00103079
0.00099997
0.00102872
0.00100204
0.00100204
0.000999968
0.000995219
0.000964401
0.000993146
0.000993147
0.00096647
0.000966469
0.000995219
0.000964402
0.000993147
0.000993148
0.000966469
0.000966468
0.000993145
0.000966471
0.00096647
0.000995221
0.000964401
0.000993147
0.000966468
0.000966468
0.000964398
0.00095965
0.000928832
0.000957576
0.000957576
0.0009309
0.000930899
0.000959651
0.000928832
0.000957576
0.000957577
0.000930901
0.000930899
0.000957576
0.0009309
0.000930901
0.000959651
0.00092883
0.000957574
0.0009309
0.000930901
0.00092883
0.000924082
0.000893261
0.000922007
0.000922007
0.000895328
0.000895328
0.000924083
0.000893259
0.000922007
0.000922006
0.00089533
0.00089533
0.000922007
0.000895329
0.000895331
0.000924082
0.000893259
0.000922006
0.000895329
0.000895331
0.000893261
0.000888512
0.00085769
0.000886437
0.000886435
0.00085976
0.000859761
0.00088851
0.00085769
0.000886439
0.000886437
0.000859758
0.000859761
0.000886439
0.00085976
0.00085976
0.00088851
0.00085769
0.000886439
0.000859759
0.00085976
0.000857692
0.000852942
0.000822118
0.000850867
0.000850867
0.00082419
0.000824191
0.000852939
0.000822122
0.000850868
0.000850868
0.000824188
0.00082419
0.000850869
0.00082419
0.000824189
0.00085294
0.000822121
0.000850869
0.000824191
0.00082419
0.000822121
0.000817369
0.00078655
0.000815297
0.000815299
0.000788619
0.000788617
0.000817373
0.000786549
0.000815296
0.000815298
0.000788619
0.000788618
0.000815297
0.000788617
0.000788619
0.000817371
0.00078655
0.000815298
0.000788619
0.000788619
0.00078655
0.000781799
0.00075098
0.000779726
0.000779727
0.000753048
0.000753047
0.000781801
0.000750978
0.000779726
0.000779726
0.000753048
0.000753046
0.000779726
0.000753047
0.000753049
0.0007818
0.000750978
0.000779728
0.000753047
0.000753048
0.000750979
0.00074623
0.000715408
0.000744155
0.000744154
0.000717477
0.000717478
0.000746229
0.000715407
0.000744155
0.000744154
0.000717476
0.000717477
0.000744156
0.000717476
0.000717477
0.000746229
0.000715407
0.000744156
0.000717477
0.000717476
0.000715407
0.000710658
0.000679835
0.000708584
0.000708584
0.000681906
0.000681906
0.000710658
0.000679836
0.000708583
0.000708583
0.000681905
0.000681906
0.000708586
0.000681904
0.000681904
0.000710658
0.000679836
0.000708585
0.000681906
0.000681905
0.000679836
0.000675086
0.000644264
0.000673014
0.000673014
0.000646335
0.000646333
0.000675087
0.000644264
0.000673012
0.000673012
0.000646335
0.000646334
0.000673013
0.000646333
0.000646334
0.000675087
0.000644264
0.000673014
0.000646334
0.000646333
0.000644264
0.000639514
0.000608695
0.000637442
0.000637442
0.000610764
0.000610762
0.000639515
0.000608693
0.00063744
0.00063744
0.000610765
0.000610765
0.000637441
0.000610764
0.000610764
0.000639514
0.000608693
0.000637442
0.000610763
0.000610762
0.000608693
0.000603944
0.000573123
0.000601872
0.00060187
0.000575192
0.000575191
0.000603943
0.000573122
0.000601871
0.00060187
0.000575193
0.000575193
0.00060187
0.000575193
0.000575193
0.000603943
0.000573122
0.000601869
0.000575193
0.000575192
0.000573122
0.000568373
0.000537551
0.0005663
0.000566299
0.00053962
0.00053962
0.000568372
0.00053755
0.000566301
0.0005663
0.00053962
0.00053962
0.000566299
0.000539621
0.000539621
0.000568372
0.000537551
0.000566298
0.000539622
0.000539621
0.000537551
0.0005328
0.00050198
0.000530727
0.000530727
0.00050405
0.000504049
0.0005328
0.000501979
0.000530728
0.000530727
0.00050405
0.00050405
0.000530728
0.00050405
0.000504049
0.0005328
0.000501979
0.000530728
0.000504049
0.000504049
0.000501979
0.000497228
0.000466409
0.000495155
0.000495156
0.000468479
0.000468479
0.000497228
0.00046641
0.000495156
0.000495156
0.000468479
0.000468479
0.000495157
0.000468479
0.000468478
0.000497228
0.000466409
0.000495157
0.000468478
0.000468477
0.000466408
0.000461658
0.000430839
0.000459585
0.000459586
0.000432908
0.000432908
0.000461658
0.000430839
0.000459586
0.000459586
0.000432908
0.000432907
0.000459585
0.000432907
0.000432907
0.000461657
0.000430838
0.000459586
0.000432908
0.000432905
0.000430837
0.000426088
0.000395268
0.000424015
0.000424015
0.000397336
0.000397336
0.000426088
0.000395267
0.000424016
0.000424016
0.000397335
0.000397335
0.000424014
0.000397335
0.000397335
0.000426087
0.000395266
0.000424015
0.000397336
0.000397334
0.000395266
0.000390517
0.000359696
0.000388445
0.000388444
0.000361764
0.000361764
0.000390515
0.000359696
0.000388445
0.000388444
0.000361763
0.000361763
0.000388444
0.000361764
0.000361764
0.000390515
0.000359694
0.000388443
0.000361764
0.000361763
0.000359695
0.000354944
0.000324125
0.000352873
0.000352871
0.000326194
0.000326194
0.000354942
0.000324126
0.000352874
0.000352872
0.000326193
0.000326193
0.000352872
0.000326194
0.000326193
0.000354942
0.000324125
0.000352871
0.000326194
0.000326193
0.000324124
0.000319371
0.000288554
0.000317301
0.000317301
0.000290623
0.000290623
0.000319371
0.000288555
0.000317302
0.000317301
0.000290622
0.000290622
0.000317302
0.000290623
0.000290622
0.000319371
0.000288555
0.000317301
0.000290623
0.000290622
0.000288554
0.000283799
0.000252983
0.000281732
0.000281732
0.000255049
0.000255049
0.000283799
0.000252984
0.000281731
0.000281731
0.00025505
0.000255051
0.000281731
0.000255051
0.00025505
0.0002838
0.000252985
0.000281731
0.000255049
0.000255049
0.000252984
0.000248226
0.000217413
0.00024616
0.000246161
0.000219478
0.000219479
0.000248226
0.000217414
0.000246161
0.000246161
0.000219479
0.000219479
0.000246161
0.000219479
0.000219478
0.000248227
0.000217415
0.000246162
0.000219477
0.000219476
0.000217414
0.00021265
0.000181845
0.000210588
0.000210588
0.000183908
0.000183908
0.00021265
0.000181846
0.000210589
0.00021059
0.000183906
0.000183906
0.00021059
0.000183906
0.000183906
0.000212652
0.000181845
0.00021059
0.000183905
0.000183905
0.000181845
0.000177072
0.000146275
0.000175019
0.00017502
0.00014833
0.000148331
0.000177073
0.000146275
0.000175017
0.000175018
0.000148332
0.000148332
0.000175018
0.000148332
0.000148331
0.000177073
0.000146274
0.000175018
0.00014833
0.00014833
0.000146274
0.000141487
0.000110702
0.000139445
0.000139445
0.000112751
0.000112751
0.000141487
0.000110701
0.000139444
0.000139444
0.000112752
0.000112752
0.000139444
0.000112752
0.000112751
0.000141487
0.0001107
0.000139444
0.000112751
0.000112751
0.000110701
0.000105889
7.51221e-05
0.000103865
0.000103865
7.71625e-05
7.71625e-05
0.000105888
7.51218e-05
0.000103866
0.000103866
7.71615e-05
7.71616e-05
0.000103865
7.71619e-05
7.71609e-05
0.000105888
7.51207e-05
0.000103865
7.71622e-05
7.71612e-05
7.51213e-05
7.02755e-05
3.96625e-05
6.82823e-05
6.82815e-05
4.17341e-05
4.17355e-05
7.02747e-05
3.96631e-05
6.82809e-05
6.82799e-05
4.17337e-05
4.17325e-05
6.82797e-05
4.17348e-05
4.17319e-05
7.02741e-05
3.96604e-05
6.82796e-05
4.17321e-05
4.17313e-05
3.96604e-05
3.48708e-05
7.32565e-06
3.31517e-05
3.31521e-05
9.9915e-06
9.9908e-06
3.48707e-05
7.32522e-06
3.31504e-05
3.31481e-05
9.9914e-06
9.98693e-06
3.31466e-05
9.99019e-06
9.9853e-06
3.48682e-05
7.32255e-06
3.3147e-05
9.98903e-06
9.9887e-06
7.32153e-06
4.17823e-06
4.67567e-06
4.67211e-06
4.17844e-06
4.66879e-06
4.66815e-06
4.91386e-06
4.91287e-06
4.91256e-06
4.67032e-06
4.17671e-06
4.66953e-06
0.0035346
0.00353782
0.00353647
0.00353648
0.00356084
0.00353862
0.00356643
0.0035379
0.00356084
0.00353868
0.00353792
0.00356648
0.00354853
0.00356976
0.00356974
0.00350583
0.00352007
0.00352362
0.00349808
0.00349694
0.00350152
0.00350599
0.00352001
0.00352375
0.00349809
0.00352217
0.00352216
0.00352218
0.00349497
0.00349496
0.00349497
0.00349499
0.00350549
0.00351802
0.00352273
0.00351303
0.00352498
0.00350264
0.00351335
0.00349689
0.00350157
0.00350545
0.00352271
0.00351806
0.00351311
0.003525
0.00351335
0.0035026
0.00352389
0.00352384
0.00351021
0.00350255
0.00350255
0.00347889
0.00349263
0.00349218
0.00347691
0.00348983
0.00347603
0.00347896
0.00349256
0.00349221
0.00347686
0.00348604
0.00348603
0.00348604
0.00345886
0.00345889
0.00345886
0.00345887
0.00347638
0.00349132
0.00348479
0.00347597
0.00348976
0.00347703
0.00347591
0.00348984
0.00347597
0.0034764
0.00348479
0.00349129
0.00347589
0.00348975
0.0034759
0.00347707
0.00349288
0.0034929
0.00347455
0.00347765
0.00347765
0.00343677
0.00345149
0.00345235
0.00343554
0.00345037
0.00343461
0.00343672
0.00345148
0.00345239
0.00343555
0.003449
0.00344895
0.00344898
0.00341606
0.00341605
0.00341606
0.00341607
0.00343543
0.00345127
0.00344729
0.00343712
0.00345022
0.00343605
0.00343694
0.00345034
0.00343458
0.00343541
0.00344725
0.00345109
0.00343702
0.00345019
0.00343691
0.00343593
0.00345171
0.00345176
0.00343423
0.00343587
0.00343583
0.00339016
0.00340672
0.00340808
0.00338873
0.00340602
0.00338814
0.00339001
0.00340671
0.00340813
0.00338875
0.0034043
0.00340431
0.00340432
0.00336816
0.00336814
0.00336815
0.00336816
0.00338899
0.00340659
0.00340289
0.00339099
0.00340614
0.00338935
0.00339097
0.00340606
0.00338814
0.003389
0.00340291
0.00340661
0.00339102
0.00340614
0.00339097
0.00338936
0.00340682
0.00340685
0.00338788
0.0033888
0.0033888
0.0033412
0.00335825
0.00335955
0.00334006
0.00335781
0.00333972
0.00334125
0.00335826
0.0033595
0.00334007
0.00335604
0.00335605
0.00335605
0.00331984
0.00331983
0.00331984
0.00331985
0.00334059
0.00335826
0.00335469
0.00334264
0.00335799
0.00334073
0.00334264
0.00335784
0.00333973
0.00334059
0.00335469
0.00335829
0.00334261
0.003358
0.00334263
0.00334073
0.00335834
0.0033583
0.00333955
0.00334014
0.00334014
0.00329256
0.00330976
0.00331073
0.00329177
0.00330949
0.00329151
0.00329257
0.00330977
0.00331074
0.00329176
0.00330781
0.00330781
0.00330782
0.0032718
0.00327179
0.0032718
0.0032718
0.00329232
0.0033098
0.00330666
0.00329459
0.00330967
0.00329236
0.00329464