/*--------------------------------*- C++ -*----------------------------------*\
| =========                 |                                                 |
| \\      /  F ield         | OpenFOAM: The Open Source CFD Toolbox           |
|  \\    /   O peration     | Version:  v1906                                 |
|   \\  /    A nd           | Web:      www.OpenFOAM.com                      |
|    \\/     M anipulation  |                                                 |
\*---------------------------------------------------------------------------*/
FoamFile
{
    version     2.0;
    format      ascii;
    class       volScalarField;
    location    "87.5";
    object      epsilon;
}
// * * * * * * * * * * * * * * * * * * * * * * * * * * * * * * * * * * * * * //

dimensions      [0 2 -3 0 0 0 0];


internalField   nonuniform List<scalar> 
171728
(
9.34766e-08
2.51118e-08
1.30303e-08
6.83933e-09
9.48376e-08
2.55681e-08
1.40459e-08
6.4439e-09
9.82354e-08
2.54231e-08
1.56737e-08
6.36612e-09
1.01573e-07
2.33731e-08
1.75278e-08
6.51307e-09
1.04863e-07
2.16193e-08
1.97677e-08
6.88839e-09
1.07844e-07
2.18082e-08
2.24545e-08
7.60701e-09
1.11055e-07
2.47664e-08
2.5685e-08
8.77985e-09
1.14587e-07
2.85724e-08
2.96742e-08
1.05183e-08
1.1817e-07
3.34427e-08
3.46184e-08
1.34823e-08
1.21734e-07
3.94513e-08
4.05947e-08
1.79616e-08
1.25465e-07
4.68792e-08
4.76771e-08
2.34495e-08
1.29151e-07
5.5244e-08
5.5943e-08
2.98402e-08
1.33386e-07
6.54905e-08
6.61403e-08
3.83609e-08
1.37945e-07
7.71453e-08
7.78201e-08
5.08658e-08
1.43838e-07
9.18773e-08
9.23652e-08
6.88798e-08
1.51284e-07
1.10201e-07
1.10475e-07
9.48981e-08
1.60806e-07
1.35798e-07
1.35947e-07
1.36077e-07
1.73833e-07
1.74894e-07
1.75175e-07
2.06331e-07
1.92149e-07
2.32301e-07
2.32467e-07
3.08032e-07
2.11552e-07
2.94516e-07
2.94577e-07
4.09605e-07
2.30556e-07
3.48711e-07
3.48763e-07
4.85058e-07
2.4335e-07
3.78328e-07
3.78379e-07
5.20443e-07
2.48354e-07
3.87339e-07
3.87389e-07
5.28966e-07
2.49596e-07
3.89121e-07
3.89169e-07
5.30424e-07
2.49829e-07
3.89416e-07
3.89464e-07
5.30706e-07
2.4987e-07
3.89464e-07
3.89511e-07
5.30702e-07
2.4988e-07
3.89476e-07
3.89523e-07
5.30707e-07
2.49887e-07
3.89484e-07
3.8953e-07
5.30719e-07
2.49891e-07
3.89489e-07
3.89535e-07
5.3072e-07
2.49895e-07
3.89492e-07
3.89538e-07
5.30723e-07
2.49898e-07
3.89494e-07
3.8954e-07
5.30726e-07
2.49901e-07
3.89495e-07
3.89541e-07
5.30719e-07
2.49903e-07
3.89495e-07
3.8954e-07
5.30719e-07
2.49905e-07
3.89495e-07
3.8954e-07
5.30723e-07
2.49904e-07
3.89495e-07
3.89541e-07
5.30717e-07
2.49904e-07
3.89495e-07
3.8954e-07
5.30722e-07
2.49904e-07
3.89494e-07
3.8954e-07
5.3074e-07
2.49904e-07
3.89494e-07
3.8954e-07
5.30755e-07
2.49904e-07
3.89495e-07
3.8954e-07
5.30769e-07
2.49904e-07
3.89495e-07
3.8954e-07
5.30786e-07
2.49904e-07
3.89495e-07
3.8954e-07
5.30794e-07
2.49905e-07
3.89493e-07
3.8954e-07
5.30796e-07
2.49905e-07
3.89492e-07
3.8954e-07
5.30803e-07
2.49905e-07
3.89491e-07
3.8954e-07
5.30805e-07
2.49904e-07
3.89491e-07
3.8954e-07
5.30803e-07
2.49905e-07
3.8949e-07
3.8954e-07
5.30804e-07
2.49905e-07
3.89491e-07
3.89539e-07
5.30807e-07
2.49905e-07
3.89491e-07
3.89539e-07
5.30808e-07
2.49905e-07
3.89491e-07
3.89539e-07
5.30807e-07
2.49904e-07
3.89492e-07
3.8954e-07
5.30808e-07
2.49904e-07
3.89492e-07
3.89539e-07
5.30806e-07
2.49904e-07
3.89492e-07
3.89539e-07
5.30806e-07
2.49904e-07
3.89492e-07
3.89539e-07
5.3081e-07
2.49905e-07
3.89493e-07
3.8954e-07
5.30809e-07
2.49905e-07
3.89493e-07
3.8954e-07
5.30804e-07
2.49905e-07
3.89492e-07
3.89539e-07
5.30801e-07
2.49904e-07
3.89493e-07
3.89539e-07
5.30803e-07
2.49904e-07
3.89493e-07
3.89539e-07
5.30806e-07
2.49904e-07
3.89492e-07
3.89539e-07
5.30809e-07
2.49904e-07
3.89492e-07
3.89539e-07
5.30807e-07
2.49904e-07
3.89492e-07
3.89539e-07
5.30805e-07
2.49904e-07
3.89492e-07
3.8954e-07
5.30809e-07
2.49903e-07
3.89492e-07
3.8954e-07
5.30807e-07
2.49903e-07
3.89492e-07
3.8954e-07
5.30802e-07
2.49903e-07
3.89491e-07
3.89539e-07
5.30799e-07
2.49903e-07
3.89491e-07
3.89539e-07
5.30801e-07
2.49903e-07
3.89491e-07
3.89539e-07
5.30803e-07
2.49904e-07
3.89491e-07
3.89539e-07
5.30806e-07
2.49904e-07
3.89491e-07
3.89538e-07
5.30806e-07
2.49904e-07
3.89491e-07
3.89538e-07
5.30806e-07
2.49905e-07
3.89491e-07
3.89538e-07
5.30812e-07
2.49905e-07
3.89491e-07
3.89538e-07
5.30809e-07
2.49905e-07
3.89492e-07
3.89538e-07
5.308e-07
2.49904e-07
3.89492e-07
3.89539e-07
5.30802e-07
2.49904e-07
3.89493e-07
3.89539e-07
5.30803e-07
2.49904e-07
3.89494e-07
3.8954e-07
5.30799e-07
2.49904e-07
3.89494e-07
3.8954e-07
5.30805e-07
2.49904e-07
3.89495e-07
3.8954e-07
5.3081e-07
2.49906e-07
3.89495e-07
3.89541e-07
5.30804e-07
2.49906e-07
3.89496e-07
3.89541e-07
5.30799e-07
2.49907e-07
3.89496e-07
3.89541e-07
5.30807e-07
2.49909e-07
3.89497e-07
3.89542e-07
5.3081e-07
2.4991e-07
3.89497e-07
3.89543e-07
5.30805e-07
2.4991e-07
3.89498e-07
3.89545e-07
5.30802e-07
2.49911e-07
3.89499e-07
3.89546e-07
5.30804e-07
2.49912e-07
3.895e-07
3.89546e-07
5.30807e-07
2.49913e-07
3.89501e-07
3.89547e-07
5.30811e-07
2.49915e-07
3.89501e-07
3.89547e-07
5.30809e-07
2.49916e-07
3.89501e-07
3.89547e-07
5.308e-07
2.49918e-07
3.89498e-07
3.89544e-07
5.30793e-07
2.49919e-07
3.89492e-07
3.89538e-07
5.30796e-07
2.4992e-07
3.8948e-07
3.89525e-07
5.30787e-07
2.49919e-07
3.89451e-07
3.89495e-07
5.30751e-07
2.49852e-07
3.89395e-07
3.89437e-07
5.3056e-07
2.46261e-07
3.71834e-07
3.71842e-07
5.07363e-07
7.46173e-09
1.03209e-08
1.132e-08
7.06218e-09
1.37342e-08
9.6211e-09
9.50713e-08
9.45575e-08
9.40032e-08
9.46149e-08
1.41874e-08
1.01859e-08
6.19886e-09
9.33254e-09
9.28537e-09
6.94581e-09
7.36184e-09
7.21297e-09
1.34022e-08
1.60757e-08
1.41958e-08
1.68968e-08
6.94842e-09
6.94839e-09
2.15178e-08
1.36986e-08
2.26141e-08
1.41527e-08
1.36754e-08
2.54936e-08
1.43438e-08
6.09705e-09
5.77232e-09
1.26967e-08
1.37186e-08
1.34991e-08
6.51436e-09
7.15257e-09
7.36019e-09
1.45495e-08
1.72957e-08
1.59845e-08
1.86102e-08
6.88461e-09
7.13022e-09
2.31067e-08
1.43988e-08
2.45971e-08
1.52611e-08
1.46856e-08
2.55557e-08
1.58278e-08
5.70115e-09
5.69821e-09
1.38952e-08
1.52585e-08
1.51948e-08
6.40979e-09
7.31189e-09
7.79605e-09
1.64728e-08
1.90751e-08
1.79875e-08
2.06592e-08
7.06369e-09
7.20912e-09
2.51129e-08
1.55964e-08
2.64694e-08
1.67473e-08
1.62402e-08
2.40707e-08
1.76246e-08
5.66466e-09
5.98293e-09
1.56647e-08
1.70473e-08
1.72132e-08
6.55134e-09
7.74714e-09
8.339e-09
1.85189e-08
2.12163e-08
2.03179e-08
2.30344e-08
7.11777e-09
7.2289e-09
2.68546e-08
1.7171e-08
2.77854e-08
1.86887e-08
1.81126e-08
2.1831e-08
1.98168e-08
5.9541e-09
6.50608e-09
1.77503e-08
1.92193e-08
1.95464e-08
6.92082e-09
8.29644e-09
8.90764e-09
2.09672e-08
2.36693e-08
2.30932e-08
2.57597e-08
7.18303e-09
7.83018e-09
2.79473e-08
1.92479e-08
2.78603e-08
2.12648e-08
2.04148e-08
2.15793e-08
2.2419e-08
6.48748e-09
7.34463e-09
2.01873e-08
2.17401e-08
2.22946e-08
7.62385e-09
8.86085e-09
9.72995e-09
2.38436e-08
2.64755e-08
2.63014e-08
2.88673e-08
7.80666e-09
8.98293e-09
2.749e-08
2.19753e-08
2.70626e-08
2.428e-08
2.31567e-08
2.39388e-08
2.55833e-08
7.33693e-09
8.53411e-09
2.30761e-08
2.48e-08
2.56341e-08
8.77945e-09
9.72587e-09
1.13484e-08
2.72333e-08
2.97523e-08
3.0206e-08
3.22477e-08
8.98238e-09
1.06014e-08
2.70702e-08
2.5122e-08
2.77578e-08
2.7673e-08
2.65569e-08
2.75539e-08
2.95656e-08
8.54504e-09
1.02547e-08
2.65955e-08
2.85909e-08
2.97153e-08
1.04645e-08
1.14242e-08
1.41464e-08
3.13519e-08
3.30728e-08
3.51331e-08
3.5393e-08
1.06372e-08
1.3023e-08
2.86776e-08
2.86734e-08
3.20564e-08
3.20809e-08
3.06844e-08
3.21327e-08
3.45068e-08
1.03187e-08
1.298e-08
3.08487e-08
3.33256e-08
3.46631e-08
1.33144e-08
1.42905e-08
1.8e-08
3.64601e-08
3.61409e-08
4.09241e-08
3.89424e-08
1.31511e-08
1.68486e-08
3.33302e-08
3.33464e-08
3.76741e-08
3.78026e-08
3.58731e-08
3.78131e-08
4.04025e-08
1.31389e-08
1.71377e-08
3.60722e-08
3.90531e-08
4.06862e-08
1.76878e-08
1.82413e-08
2.32241e-08
4.25133e-08
4.01584e-08
4.7554e-08
4.47533e-08
1.71091e-08
2.22827e-08
3.925e-08
3.94281e-08
4.44773e-08
4.47254e-08
4.20255e-08
4.49142e-08
4.7249e-08
1.74123e-08
2.25671e-08
4.23333e-08
4.57436e-08
4.76481e-08
2.3119e-08
2.35731e-08
2.9749e-08
4.94329e-08
4.66187e-08
5.52963e-08
5.25907e-08
2.2656e-08
2.90925e-08
4.64649e-08
4.67154e-08
5.25243e-08
5.27903e-08
4.91381e-08
5.30519e-08
5.47909e-08
2.29252e-08
2.92298e-08
4.95662e-08
5.37454e-08
5.53575e-08
2.93987e-08
3.02245e-08
3.84083e-08
5.73947e-08
5.47755e-08
6.47178e-08
6.22837e-08
2.95899e-08
3.80348e-08
5.47224e-08
5.4992e-08
6.23119e-08
6.25729e-08
5.67925e-08
6.28917e-08
6.35741e-08
2.97249e-08
3.81551e-08
5.7411e-08
6.35405e-08
6.42892e-08
3.76039e-08
3.91675e-08
4.98519e-08
6.73145e-08
6.49587e-08
7.56177e-08
7.3536e-08
3.87779e-08
4.95429e-08
6.49582e-08
6.52169e-08
7.34927e-08
7.37575e-08
6.59456e-08
7.39112e-08
7.40878e-08
3.89034e-08
4.97503e-08
6.6667e-08
7.46248e-08
7.46847e-08
4.88746e-08
5.17696e-08
6.60106e-08
7.87619e-08
7.67778e-08
8.93314e-08
8.76433e-08
5.13961e-08
6.57809e-08
7.67556e-08
7.70184e-08
8.76052e-08
8.78866e-08
7.73331e-08
8.80131e-08
8.81207e-08
5.1637e-08
6.60252e-08
7.78773e-08
8.85318e-08
8.85757e-08
6.56288e-08
6.9219e-08
8.97912e-08
9.31442e-08
9.15794e-08
1.0592e-07
1.04889e-07
6.89893e-08
8.96417e-08
9.15179e-08
9.18048e-08
1.04784e-07
1.05092e-07
9.1996e-08
1.0508e-07
1.0516e-07
6.92389e-08
8.98874e-08
9.24168e-08
1.05429e-07
1.05477e-07
8.97766e-08
9.48409e-08
1.2739e-07
1.1089e-07
1.10035e-07
1.28886e-07
1.2825e-07
9.47084e-08
1.27386e-07
1.09929e-07
1.10235e-07
1.28179e-07
1.28425e-07
1.10263e-07
1.28461e-07
1.28356e-07
9.49701e-08
1.27525e-07
1.10557e-07
1.28594e-07
1.28596e-07
1.27515e-07
1.36015e-07
1.92108e-07
1.36228e-07
1.35613e-07
1.63695e-07
1.63246e-07
1.3599e-07
1.91891e-07
1.35555e-07
1.35782e-07
1.63216e-07
1.63435e-07
1.35688e-07
1.63367e-07
1.63256e-07
1.36077e-07
1.92086e-07
1.35903e-07
1.63634e-07
1.63386e-07
1.91897e-07
2.06551e-07
2.89017e-07
1.7518e-07
1.74827e-07
2.16979e-07
2.16866e-07
2.06333e-07
2.88934e-07
1.74798e-07
1.75015e-07
2.16837e-07
2.17006e-07
1.7482e-07
2.16861e-07
2.16837e-07
2.06583e-07
2.89217e-07
1.74923e-07
2.17067e-07
2.16872e-07
2.8893e-07
3.08102e-07
3.92878e-07
2.32403e-07
2.32343e-07
2.79203e-07
2.79205e-07
3.08038e-07
3.92852e-07
2.32308e-07
2.32458e-07
2.79153e-07
2.79264e-07
2.32311e-07
2.79131e-07
2.79177e-07
3.08285e-07
3.92964e-07
2.32328e-07
2.79205e-07
2.79152e-07
3.92885e-07
4.09597e-07
4.73441e-07
2.946e-07
2.94612e-07
3.37122e-07
3.37145e-07
4.09571e-07
4.73403e-07
2.94553e-07
2.94659e-07
3.37073e-07
3.37174e-07
2.94584e-07
3.37032e-07
3.37121e-07
4.09666e-07
4.73484e-07
2.94551e-07
3.37085e-07
3.37071e-07
4.73475e-07
4.85029e-07
5.15689e-07
3.48809e-07
3.48836e-07
3.73499e-07
3.73529e-07
4.8499e-07
5.15636e-07
3.48762e-07
3.48861e-07
3.7345e-07
3.73547e-07
3.48813e-07
3.73402e-07
3.73507e-07
4.85065e-07
5.15713e-07
3.4876e-07
3.73452e-07
3.73452e-07
5.15725e-07
5.2041e-07
5.27129e-07
3.78431e-07
3.78461e-07
3.86283e-07
3.86313e-07
5.20357e-07
5.27077e-07
3.78381e-07
3.78477e-07
3.86232e-07
3.86326e-07
3.7844e-07
3.86182e-07
3.86295e-07
5.2043e-07
5.27146e-07
3.78384e-07
3.86232e-07
3.8624e-07
5.27169e-07
5.2893e-07
5.2916e-07
3.87442e-07
3.87472e-07
3.8902e-07
3.8905e-07
5.28879e-07
5.29106e-07
3.87392e-07
3.87484e-07
3.8897e-07
3.8906e-07
3.87453e-07
3.88919e-07
3.8903e-07
5.28941e-07
5.29171e-07
3.87399e-07
3.88966e-07
3.88977e-07
5.29195e-07
5.30393e-07
5.29534e-07
3.89223e-07
3.89254e-07
3.89486e-07
3.89518e-07
5.3034e-07
5.2948e-07
3.89175e-07
3.89264e-07
3.89437e-07
3.89526e-07
3.89233e-07
3.89384e-07
3.89493e-07
5.30399e-07
5.29544e-07
3.89182e-07
3.89431e-07
3.89444e-07
5.29564e-07
5.3068e-07
5.29538e-07
3.89518e-07
3.8955e-07
3.89559e-07
3.89592e-07
5.30627e-07
5.29484e-07
3.8947e-07
3.89559e-07
3.89511e-07
3.89601e-07
3.89524e-07
3.89458e-07
3.89562e-07
5.30685e-07
5.29548e-07
3.89476e-07
3.89505e-07
3.89516e-07
5.29562e-07
5.30682e-07
5.29543e-07
3.89565e-07
3.89598e-07
3.89574e-07
3.89609e-07
5.3063e-07
5.29491e-07
3.89517e-07
3.89606e-07
3.89527e-07
3.89617e-07
3.89568e-07
3.89474e-07
3.89577e-07
5.30688e-07
5.29554e-07
3.89521e-07
3.89521e-07
3.89531e-07
5.29564e-07
5.30689e-07
5.29556e-07
3.89577e-07
3.89611e-07
3.89581e-07
3.89617e-07
5.30637e-07
5.29503e-07
3.8953e-07
3.8962e-07
3.89536e-07
3.89625e-07
3.89579e-07
3.89482e-07
3.89585e-07
5.30695e-07
5.29567e-07
3.89534e-07
3.89529e-07
3.89539e-07
5.29579e-07
5.30699e-07
5.29556e-07
3.89583e-07
3.8962e-07
3.89585e-07
3.89624e-07
5.30648e-07
5.29505e-07
3.89538e-07
3.89627e-07
3.89542e-07
3.89631e-07
3.89587e-07
3.89488e-07
3.8959e-07
5.30705e-07
5.29568e-07
3.89542e-07
3.89534e-07
3.89546e-07
5.29578e-07
5.307e-07
5.2956e-07
3.89587e-07
3.89625e-07
3.89587e-07
3.89628e-07
5.30651e-07
5.2951e-07
3.89543e-07
3.89633e-07
3.89546e-07
3.89635e-07
3.89591e-07
3.89492e-07
3.89593e-07
5.30708e-07
5.29573e-07
3.89547e-07
3.89538e-07
3.89549e-07
5.29583e-07
5.30703e-07
5.2956e-07
3.89588e-07
3.89629e-07
3.89587e-07
3.8963e-07
5.30655e-07
5.29512e-07
3.89547e-07
3.89636e-07
3.89548e-07
3.89636e-07
3.89594e-07
3.89494e-07
3.89593e-07
5.30711e-07
5.29574e-07
3.8955e-07
3.8954e-07
3.8955e-07
5.29585e-07
5.30704e-07
5.29561e-07
3.89587e-07
3.8963e-07
3.89586e-07
3.89631e-07
5.30657e-07
5.29511e-07
3.89549e-07
3.89637e-07
3.89549e-07
3.89636e-07
3.89594e-07
3.89495e-07
3.89594e-07
5.30713e-07
5.29575e-07
3.8955e-07
3.8954e-07
3.8955e-07
5.29577e-07
5.30705e-07
5.29557e-07
3.89587e-07
3.89632e-07
3.89586e-07
3.89633e-07
5.30657e-07
5.29504e-07
3.89549e-07
3.89637e-07
3.89549e-07
3.89637e-07
3.89595e-07
3.89495e-07
3.89594e-07
5.30714e-07
5.2957e-07
3.89551e-07
3.8954e-07
3.8955e-07
5.29582e-07
5.30702e-07
5.29556e-07
3.89586e-07
3.89634e-07
3.89585e-07
3.89635e-07
5.30651e-07
5.29507e-07
3.8955e-07
3.89637e-07
3.8955e-07
3.89637e-07
3.89594e-07
3.89495e-07
3.89594e-07
5.30709e-07
5.29573e-07
3.89551e-07
3.89541e-07
3.89551e-07
5.29585e-07
5.30696e-07
5.2957e-07
3.89586e-07
3.89636e-07
3.89585e-07
3.89636e-07
5.30647e-07
5.29521e-07
3.89551e-07
3.89637e-07
3.89551e-07
3.89637e-07
3.89595e-07
3.89495e-07
3.89594e-07
5.30707e-07
5.29586e-07
3.89551e-07
3.89541e-07
3.8955e-07
5.29582e-07
5.30707e-07
5.29573e-07
3.89585e-07
3.89637e-07
3.89585e-07
3.89637e-07
5.30662e-07
5.29518e-07
3.89551e-07
3.89637e-07
3.89551e-07
3.89637e-07
3.89595e-07
3.89495e-07
3.89594e-07
5.30721e-07
5.29583e-07
3.89551e-07
3.8954e-07
3.8955e-07
5.29595e-07
5.3072e-07
5.2956e-07
3.89586e-07
3.89637e-07
3.89585e-07
3.89636e-07
5.3067e-07
5.29503e-07
3.89551e-07
3.89638e-07
3.8955e-07
3.89637e-07
3.89595e-07
3.89494e-07
3.89595e-07
5.30728e-07
5.2957e-07
3.89551e-07
3.8954e-07
3.8955e-07
5.29612e-07
5.30714e-07
5.2955e-07
3.89585e-07
3.89637e-07
3.89585e-07
3.89636e-07
5.30659e-07
5.29496e-07
3.89551e-07
3.89637e-07
3.89551e-07
3.89637e-07
3.89595e-07
3.89494e-07
3.89595e-07
5.30718e-07
5.29565e-07
3.89551e-07
3.8954e-07
3.89551e-07
5.29622e-07
5.30703e-07
5.29551e-07
3.89585e-07
3.89637e-07
3.89584e-07
3.89636e-07
5.30649e-07
5.29497e-07
3.89551e-07
3.89637e-07
3.89551e-07
3.89637e-07
3.89595e-07
3.89495e-07
3.89595e-07
5.3071e-07
5.29568e-07
3.89551e-07
3.8954e-07
3.89551e-07
5.29629e-07
5.30698e-07
5.29555e-07
3.89585e-07
3.89637e-07
3.89584e-07
3.89636e-07
5.30647e-07
5.29499e-07
3.89551e-07
3.89637e-07
3.8955e-07
3.89637e-07
3.89595e-07
3.89495e-07
3.89595e-07
5.3071e-07
5.29569e-07
3.89551e-07
3.8954e-07
3.89551e-07
5.29639e-07
5.307e-07
5.29558e-07
3.89585e-07
3.89638e-07
3.89583e-07
3.89635e-07
5.30648e-07
5.29505e-07
3.89551e-07
3.89638e-07
3.8955e-07
3.89637e-07
3.89595e-07
3.89495e-07
3.89595e-07
5.30712e-07
5.29569e-07
3.89552e-07
3.8954e-07
3.89551e-07
5.29638e-07
5.30701e-07
5.29557e-07
3.89584e-07
3.89635e-07
3.89584e-07
3.89633e-07
5.30653e-07
5.2951e-07
3.89552e-07
3.89638e-07
3.89552e-07
3.89637e-07
3.89595e-07
3.89494e-07
3.89594e-07
5.30712e-07
5.29568e-07
3.89551e-07
3.8954e-07
3.89551e-07
5.29639e-07
5.30701e-07
5.29558e-07
3.89584e-07
3.89633e-07
3.89583e-07
3.89632e-07
5.30656e-07
5.29507e-07
3.89553e-07
3.89638e-07
3.89552e-07
3.89637e-07
3.89595e-07
3.89492e-07
3.89594e-07
5.30711e-07
5.29568e-07
3.89552e-07
3.8954e-07
3.89551e-07
5.29645e-07
5.30702e-07
5.2956e-07
3.89584e-07
3.89632e-07
3.89584e-07
3.89631e-07
5.30654e-07
5.29505e-07
3.89553e-07
3.89638e-07
3.89553e-07
3.89637e-07
3.89595e-07
3.89491e-07
3.89594e-07
5.30712e-07
5.29568e-07
3.89552e-07
3.8954e-07
3.89552e-07
5.29646e-07
5.30704e-07
5.29562e-07
3.89585e-07
3.89632e-07
3.89584e-07
3.89631e-07
5.30653e-07
5.29504e-07
3.89553e-07
3.89638e-07
3.89553e-07
3.89637e-07
3.89595e-07
3.89491e-07
3.89594e-07
5.30712e-07
5.29567e-07
3.89552e-07
3.8954e-07
3.89551e-07
5.29645e-07
5.30707e-07
5.29561e-07
3.89585e-07
3.89631e-07
3.89586e-07
3.8963e-07
5.30652e-07
5.29504e-07
3.89553e-07
3.89638e-07
3.89552e-07
3.89637e-07
3.89595e-07
3.8949e-07
3.89595e-07
5.30712e-07
5.29567e-07
3.89552e-07
3.8954e-07
3.89551e-07
5.29648e-07
5.30707e-07
5.2956e-07
3.89587e-07
3.89631e-07
3.89587e-07
3.8963e-07
5.30651e-07
5.29506e-07
3.89553e-07
3.89638e-07
3.89551e-07
3.89637e-07
3.89595e-07
3.8949e-07
3.89595e-07
5.30711e-07
5.29567e-07
3.89552e-07
3.89539e-07
3.89551e-07
5.29651e-07
5.30705e-07
5.29563e-07
3.89589e-07
3.89631e-07
3.89589e-07
3.8963e-07
5.30652e-07
5.29507e-07
3.89552e-07
3.89638e-07
3.89551e-07
3.89637e-07
3.89595e-07
3.89491e-07
3.89594e-07
5.30711e-07
5.29568e-07
3.89552e-07
3.89539e-07
3.89551e-07
5.29651e-07
5.30707e-07
5.29564e-07
3.8959e-07
3.89631e-07
3.8959e-07
3.8963e-07
5.30653e-07
5.29509e-07
3.89552e-07
3.89638e-07
3.8955e-07
3.89637e-07
3.89595e-07
3.89491e-07
3.89594e-07
5.30711e-07
5.29567e-07
3.89552e-07
3.89539e-07
3.89551e-07
5.2965e-07
5.3071e-07
5.29561e-07
3.89591e-07
3.89631e-07
3.89591e-07
3.8963e-07
5.30655e-07
5.29508e-07
3.89551e-07
3.89638e-07
3.8955e-07
3.89637e-07
3.89594e-07
3.89491e-07
3.89594e-07
5.30711e-07
5.29567e-07
3.89552e-07
3.8954e-07
3.89551e-07
5.2965e-07
5.30708e-07
5.29562e-07
3.89593e-07
3.89631e-07
3.89592e-07
3.8963e-07
5.30655e-07
5.29507e-07
3.8955e-07
3.89638e-07
3.89549e-07
3.89637e-07
3.89594e-07
3.89492e-07
3.89594e-07
5.30711e-07
5.29566e-07
3.89551e-07
3.89539e-07
3.89551e-07
5.29648e-07
5.30708e-07
5.29564e-07
3.89594e-07
3.89631e-07
3.89593e-07
3.89631e-07
5.30654e-07
5.2951e-07
3.8955e-07
3.89638e-07
3.89549e-07
3.89637e-07
3.89594e-07
3.89492e-07
3.89594e-07
5.3071e-07
5.29567e-07
3.89551e-07
3.89539e-07
3.8955e-07
5.29649e-07
5.30709e-07
5.29563e-07
3.89594e-07
3.89631e-07
3.89594e-07
3.89631e-07
5.30655e-07
5.29511e-07
3.8955e-07
3.89638e-07
3.89549e-07
3.89637e-07
3.89594e-07
3.89492e-07
3.89594e-07
5.3071e-07
5.29568e-07
3.8955e-07
3.89539e-07
3.8955e-07
5.29652e-07
5.30709e-07
5.29564e-07
3.89595e-07
3.89631e-07
3.89595e-07
3.89631e-07
5.30657e-07
5.29509e-07
3.8955e-07
3.89638e-07
3.89549e-07
3.89637e-07
3.89594e-07
3.89492e-07
3.89594e-07
5.30711e-07
5.29568e-07
3.8955e-07
3.8954e-07
3.89549e-07
5.29647e-07
5.30709e-07
5.29565e-07
3.89596e-07
3.89631e-07
3.89595e-07
3.89631e-07
5.30656e-07
5.29509e-07
3.8955e-07
3.89638e-07
3.89549e-07
3.89637e-07
3.89595e-07
3.89493e-07
3.89594e-07
5.30712e-07
5.29569e-07
3.8955e-07
3.8954e-07
3.89549e-07
5.29642e-07
5.3071e-07
5.29565e-07
3.89596e-07
3.89631e-07
3.89595e-07
3.89631e-07
5.30655e-07
5.2951e-07
3.8955e-07
3.89637e-07
3.89549e-07
3.89637e-07
3.89595e-07
3.89492e-07
3.89595e-07
5.30712e-07
5.29568e-07
3.8955e-07
3.89539e-07
3.89549e-07
5.29642e-07
5.3071e-07
5.29566e-07
3.89596e-07
3.89632e-07
3.89595e-07
3.89631e-07
5.30657e-07
5.29509e-07
3.8955e-07
3.89637e-07
3.89549e-07
3.89636e-07
3.89595e-07
3.89492e-07
3.89595e-07
5.30712e-07
5.29566e-07
3.89549e-07
3.89539e-07
3.89548e-07
5.29646e-07
5.30711e-07
5.29565e-07
3.89596e-07
3.89632e-07
3.89595e-07
3.89631e-07
5.30657e-07
5.29508e-07
3.89549e-07
3.89637e-07
3.89549e-07
3.89637e-07
3.89595e-07
3.89492e-07
3.89595e-07
5.3071e-07
5.29567e-07
3.89549e-07
3.89539e-07
3.89548e-07
5.2965e-07
5.30711e-07
5.29565e-07
3.89596e-07
3.89632e-07
3.89595e-07
3.89631e-07
5.30655e-07
5.29508e-07
3.89549e-07
3.89637e-07
3.89548e-07
3.89637e-07
3.89595e-07
3.89492e-07
3.89594e-07
5.3071e-07
5.29568e-07
3.89548e-07
3.89539e-07
3.89548e-07
5.29651e-07
5.30711e-07
5.29564e-07
3.89596e-07
3.89632e-07
3.89595e-07
3.89631e-07
5.30655e-07
5.2951e-07
3.89549e-07
3.89638e-07
3.89548e-07
3.89637e-07
3.89595e-07
3.89492e-07
3.89594e-07
5.30711e-07
5.29568e-07
3.89548e-07
3.89539e-07
3.89547e-07
5.29648e-07
5.3071e-07
5.29563e-07
3.89596e-07
3.89632e-07
3.89595e-07
3.89631e-07
5.30656e-07
5.29511e-07
3.89549e-07
3.89638e-07
3.89548e-07
3.89637e-07
3.89594e-07
3.89492e-07
3.89593e-07
5.30712e-07
5.29566e-07
3.89547e-07
3.89539e-07
3.89546e-07
5.29648e-07
5.30708e-07
5.29564e-07
3.89596e-07
3.89632e-07
3.89595e-07
3.89631e-07
5.30657e-07
5.2951e-07
3.89549e-07
3.89638e-07
3.89547e-07
3.89637e-07
3.89594e-07
3.89492e-07
3.89593e-07
5.30711e-07
5.29566e-07
3.89547e-07
3.89539e-07
3.89546e-07
5.29651e-07
5.30709e-07
5.29564e-07
3.89595e-07
3.89632e-07
3.89594e-07
3.89631e-07
5.30657e-07
5.29509e-07
3.89548e-07
3.89638e-07
3.89547e-07
3.89637e-07
3.89594e-07
3.89492e-07
3.89593e-07
5.30709e-07
5.29568e-07
3.89546e-07
3.8954e-07
3.89545e-07
5.29646e-07
5.30709e-07
5.29564e-07
3.89595e-07
3.89631e-07
3.89594e-07
3.8963e-07
5.30656e-07
5.29509e-07
3.89548e-07
3.89637e-07
3.89547e-07
3.89636e-07
3.89594e-07
3.89491e-07
3.89593e-07
5.30711e-07
5.29569e-07
3.89546e-07
3.8954e-07
3.89546e-07
5.29641e-07
5.30709e-07
5.29565e-07
3.89595e-07
3.89631e-07
3.89594e-07
3.8963e-07
5.30656e-07
5.2951e-07
3.89547e-07
3.89637e-07
3.89546e-07
3.89636e-07
3.89594e-07
3.89491e-07
3.89593e-07
5.30713e-07
5.29567e-07
3.89546e-07
3.89539e-07
3.89546e-07
5.29641e-07
5.3071e-07
5.29563e-07
3.89595e-07
3.89631e-07
3.89594e-07
3.8963e-07
5.30657e-07
5.29508e-07
3.89547e-07
3.89637e-07
3.89546e-07
3.89637e-07
3.89594e-07
3.89491e-07
3.89593e-07
5.30712e-07
5.29566e-07
3.89546e-07
3.89539e-07
3.89546e-07
5.29644e-07
5.3071e-07
5.29562e-07
3.89595e-07
3.89631e-07
3.89595e-07
3.8963e-07
5.30655e-07
5.29508e-07
3.89547e-07
3.89638e-07
3.89546e-07
3.89637e-07
3.89594e-07
3.89491e-07
3.89594e-07
5.3071e-07
5.29567e-07
3.89547e-07
3.89539e-07
3.89546e-07
5.29647e-07
5.30708e-07
5.29563e-07
3.89595e-07
3.89631e-07
3.89595e-07
3.8963e-07
5.30655e-07
5.29508e-07
3.89547e-07
3.89638e-07
3.89546e-07
3.89637e-07
3.89594e-07
3.89491e-07
3.89594e-07
5.3071e-07
5.29568e-07
3.89547e-07
3.89539e-07
3.89547e-07
5.2965e-07
5.30709e-07
5.29563e-07
3.89596e-07
3.89631e-07
3.89595e-07
3.8963e-07
5.30655e-07
5.29508e-07
3.89547e-07
3.89638e-07
3.89546e-07
3.89637e-07
3.89594e-07
3.89491e-07
3.89594e-07
5.30711e-07
5.29567e-07
3.89547e-07
3.89538e-07
3.89547e-07
5.2965e-07
5.30709e-07
5.29563e-07
3.89596e-07
3.89631e-07
3.89595e-07
3.8963e-07
5.30655e-07
5.29508e-07
3.89547e-07
3.89638e-07
3.89546e-07
3.89637e-07
3.89594e-07
3.89491e-07
3.89594e-07
5.3071e-07
5.29568e-07
3.89547e-07
3.89538e-07
3.89546e-07
5.29649e-07
5.30709e-07
5.29563e-07
3.89596e-07
3.89631e-07
3.89595e-07
3.8963e-07
5.30654e-07
5.29508e-07
3.89547e-07
3.89638e-07
3.89546e-07
3.89637e-07
3.89594e-07
3.89491e-07
3.89593e-07
5.30711e-07
5.29568e-07
3.89547e-07
3.89538e-07
3.89546e-07
5.29653e-07
5.30709e-07
5.29564e-07
3.89596e-07
3.89631e-07
3.89595e-07
3.8963e-07
5.30655e-07
5.29508e-07
3.89547e-07
3.89637e-07
3.89547e-07
3.89637e-07
3.89594e-07
3.89491e-07
3.89594e-07
5.30712e-07
5.29567e-07
3.89546e-07
3.89537e-07
3.89546e-07
5.29646e-07
5.30709e-07
5.29564e-07
3.89596e-07
3.89631e-07
3.89595e-07
3.8963e-07
5.30655e-07
5.29508e-07
3.89547e-07
3.89637e-07
3.89546e-07
3.89637e-07
3.89594e-07
3.89491e-07
3.89593e-07
5.30711e-07
5.29567e-07
3.89547e-07
3.89538e-07
3.89546e-07
5.29639e-07
5.30709e-07
5.29564e-07
3.89596e-07
3.89631e-07
3.89595e-07
3.8963e-07
5.30655e-07
5.29508e-07
3.89547e-07
3.89638e-07
3.89546e-07
3.89637e-07
3.89594e-07
3.89492e-07
3.89593e-07
5.30711e-07
5.29567e-07
3.89547e-07
3.89538e-07
3.89546e-07
5.29643e-07
5.30709e-07
5.29565e-07
3.89596e-07
3.89631e-07
3.89595e-07
3.8963e-07
5.30655e-07
5.29508e-07
3.89548e-07
3.89638e-07
3.89546e-07
3.89637e-07
3.89594e-07
3.89492e-07
3.89593e-07
5.3071e-07
5.29567e-07
3.89547e-07
3.89539e-07
3.89546e-07
5.29643e-07
5.3071e-07
5.29564e-07
3.89596e-07
3.89632e-07
3.89595e-07
3.8963e-07
5.30655e-07
5.29508e-07
3.89548e-07
3.89638e-07
3.89546e-07
3.89636e-07
3.89595e-07
3.89493e-07
3.89593e-07
5.3071e-07
5.29568e-07
3.89547e-07
3.89539e-07
3.89545e-07
5.29642e-07
5.3071e-07
5.29564e-07
3.89597e-07
3.89632e-07
3.89595e-07
3.8963e-07
5.30655e-07
5.29508e-07
3.89548e-07
3.89638e-07
3.89546e-07
3.89636e-07
3.89595e-07
3.89493e-07
3.89593e-07
5.30711e-07
5.29569e-07
3.89547e-07
3.89539e-07
3.89545e-07
5.2965e-07
5.30709e-07
5.29564e-07
3.89597e-07
3.89632e-07
3.89594e-07
3.8963e-07
5.30655e-07
5.29509e-07
3.89548e-07
3.89638e-07
3.89546e-07
3.89636e-07
3.89595e-07
3.89493e-07
3.89593e-07
5.30713e-07
5.29568e-07
3.89547e-07
3.89539e-07
3.89545e-07
5.29651e-07
5.30709e-07
5.29564e-07
3.89596e-07
3.89632e-07
3.89594e-07
3.89629e-07
5.30655e-07
5.2951e-07
3.89548e-07
3.89638e-07
3.89546e-07
3.89636e-07
3.89595e-07
3.89493e-07
3.89593e-07
5.30712e-07
5.29567e-07
3.89547e-07
3.89539e-07
3.89545e-07
5.29643e-07
5.30709e-07
5.29564e-07
3.89596e-07
3.89632e-07
3.89594e-07
3.89629e-07
5.30656e-07
5.29509e-07
3.89548e-07
3.89638e-07
3.89545e-07
3.89636e-07
3.89595e-07
3.89494e-07
3.89593e-07
5.30711e-07
5.29568e-07
3.89547e-07
3.89539e-07
3.89545e-07
5.29643e-07
5.30709e-07
5.29564e-07
3.89596e-07
3.89632e-07
3.89594e-07
3.89629e-07
5.30656e-07
5.29508e-07
3.89548e-07
3.89638e-07
3.89545e-07
3.89636e-07
3.89595e-07
3.89493e-07
3.89593e-07
5.30712e-07
5.29567e-07
3.89547e-07
3.89539e-07
3.89545e-07
5.29652e-07
5.3071e-07
5.29565e-07
3.89597e-07
3.89632e-07
3.89594e-07
3.8963e-07
5.30655e-07
5.2951e-07
3.89548e-07
3.89639e-07
3.89546e-07
3.89636e-07
3.89596e-07
3.89494e-07
3.89593e-07
5.30711e-07
5.29567e-07
3.89548e-07
3.89539e-07
3.89546e-07
5.29651e-07
5.30711e-07
5.29564e-07
3.89598e-07
3.89633e-07
3.89595e-07
3.8963e-07
5.30657e-07
5.2951e-07
3.89549e-07
3.89639e-07
3.89546e-07
3.89636e-07
3.89597e-07
3.89494e-07
3.89594e-07
5.30711e-07
5.29568e-07
3.89549e-07
3.8954e-07
3.89546e-07
5.29644e-07
5.3071e-07
5.29563e-07
3.896e-07
3.89635e-07
3.89596e-07
3.89631e-07
5.30657e-07
5.29509e-07
3.89551e-07
3.89641e-07
3.89547e-07
3.89637e-07
3.89599e-07
3.89494e-07
3.89595e-07
5.30711e-07
5.29569e-07
3.89551e-07
3.8954e-07
3.89547e-07
5.29644e-07
5.30709e-07
5.29564e-07
3.89601e-07
3.89636e-07
3.89596e-07
3.89631e-07
5.30656e-07
5.2951e-07
3.89553e-07
3.89642e-07
3.89548e-07
3.89637e-07
3.896e-07
3.89494e-07
3.89595e-07
5.30713e-07
5.29569e-07
3.89552e-07
3.8954e-07
3.89547e-07
5.29648e-07
5.30709e-07
5.29565e-07
3.89603e-07
3.89638e-07
3.89596e-07
3.89631e-07
5.30656e-07
5.2951e-07
3.89554e-07
3.89644e-07
3.89547e-07
3.89637e-07
3.89601e-07
3.89493e-07
3.89594e-07
5.30713e-07
5.29568e-07
3.89553e-07
3.89539e-07
3.89546e-07
5.29651e-07
5.3071e-07
5.29564e-07
3.89604e-07
3.89639e-07
3.89595e-07
3.8963e-07
5.30657e-07
5.29509e-07
3.89556e-07
3.89645e-07
3.89546e-07
3.89636e-07
3.89602e-07
3.89491e-07
3.89593e-07
5.30712e-07
5.29569e-07
3.89554e-07
3.89537e-07
3.89544e-07
5.29653e-07
5.3071e-07
5.29564e-07
3.89606e-07
3.8964e-07
3.89593e-07
3.89627e-07
5.30656e-07
5.29507e-07
3.89557e-07
3.89646e-07
3.89544e-07
3.89634e-07
3.89603e-07
3.89488e-07
3.8959e-07
5.3071e-07
5.29567e-07
3.89554e-07
3.89535e-07
3.89542e-07
5.29647e-07
5.3071e-07
5.29562e-07
3.89606e-07
3.8964e-07
3.89588e-07
3.89623e-07
5.30655e-07
5.29506e-07
3.89558e-07
3.89647e-07
3.8954e-07
3.89629e-07
3.89604e-07
3.89484e-07
3.89586e-07
5.30709e-07
5.29565e-07
3.89555e-07
3.8953e-07
3.89537e-07
5.29639e-07
5.30708e-07
5.2956e-07
3.89605e-07
3.8964e-07
3.89581e-07
3.89615e-07
5.30653e-07
5.29503e-07
3.89558e-07
3.89646e-07
3.89533e-07
3.89622e-07
3.89603e-07
3.89477e-07
3.89579e-07
5.30706e-07
5.29563e-07
3.89554e-07
3.89523e-07
3.8953e-07
5.29638e-07
5.30705e-07
5.29554e-07
3.89603e-07
3.89637e-07
3.89569e-07
3.89603e-07
5.3065e-07
5.29499e-07
3.89555e-07
3.89644e-07
3.89521e-07
3.8961e-07
3.89601e-07
3.89465e-07
3.89567e-07
5.30703e-07
5.29557e-07
3.89551e-07
3.89511e-07
3.89517e-07
5.29644e-07
5.30698e-07
5.29547e-07
3.89597e-07
3.89631e-07
3.89548e-07
3.89583e-07
5.30643e-07
5.29493e-07
3.89549e-07
3.89638e-07
3.89501e-07
3.8959e-07
3.89595e-07
3.89445e-07
3.89547e-07
5.30695e-07
5.29549e-07
3.89545e-07
3.8949e-07
3.89497e-07
5.29636e-07
5.30685e-07
5.29537e-07
3.89584e-07
3.89619e-07
3.89514e-07
3.89546e-07
5.30631e-07
5.29482e-07
3.89536e-07
3.89625e-07
3.89467e-07
3.89555e-07
3.89582e-07
3.89409e-07
3.8951e-07
5.30685e-07
5.29544e-07
3.89532e-07
3.89454e-07
3.89458e-07
5.29617e-07
5.30659e-07
5.29427e-07
3.89557e-07
3.89586e-07
3.89296e-07
3.89323e-07
5.30609e-07
5.29373e-07
3.89508e-07
3.89595e-07
3.89243e-07
3.8933e-07
3.89552e-07
3.89192e-07
3.89293e-07
5.30663e-07
5.29435e-07
3.89499e-07
3.89231e-07
3.89232e-07
5.29501e-07
5.30482e-07
5.19411e-07
3.89502e-07
3.89529e-07
3.8046e-07
3.80487e-07
5.30434e-07
5.19378e-07
3.89449e-07
3.8954e-07
3.80434e-07
3.8047e-07
3.89502e-07
3.80398e-07
3.8045e-07
5.30486e-07
5.19406e-07
3.89438e-07
3.8041e-07
3.80416e-07
5.19413e-07
5.07373e-07
3.71879e-07
3.71903e-07
5.0735e-07
3.71862e-07
3.71885e-07
2.46257e-07
2.46253e-07
2.4625e-07
3.71868e-07
5.0737e-07
3.71846e-07
1.91622e-07
5.02854e-08
1.43201e-07
1.43111e-07
9.0198e-10
1.45136e-08
5.58631e-08
9.50158e-08
9.46432e-10
9.69141e-09
9.48532e-08
1.648e-08
7.25445e-09
1.0056e-08
4.12509e-09
5.8632e-09
1.72224e-07
4.45075e-09
2.60572e-07
1.61166e-06
3.17868e-06
6.04759e-09
1.9912e-07
4.64196e-09
3.02735e-07
9.29135e-08
9.23e-08
9.29641e-08
9.4023e-08
9.34684e-08
9.28723e-08
9.35392e-08
9.11379e-10
1.33864e-07
4.71806e-08
2.52015e-08
9.1362e-10
1.1418e-07
4.70328e-08
1.71395e-06
3.32115e-06
9.62582e-10
4.62864e-08
9.29349e-08
1.31348e-08
9.52604e-10
4.62471e-08
7.18428e-08
2.09787e-07
2.17324e-07
6.67127e-09
1.84733e-07
1.85197e-07
1.53146e-08
4.97734e-07
9.6434e-09
6.75689e-07
7.0734e-06
1.01397e-05
1.56152e-08
5.79566e-07
9.80062e-09
7.77633e-07
9.42948e-08
9.37474e-08
9.44056e-08
9.74199e-08
9.68537e-08
9.64487e-08
9.708e-08
9.02244e-10