/*--------------------------------*- C++ -*----------------------------------*\
| =========                 |                                                 |
| \\      /  F ield         | OpenFOAM: The Open Source CFD Toolbox           |
|  \\    /   O peration     | Version:  v1906                                 |
|   \\  /    A nd           | Web:      www.OpenFOAM.com                      |
|    \\/     M anipulation  |                                                 |
\*---------------------------------------------------------------------------*/
FoamFile
{
    version     2.0;
    format      ascii;
    class       volScalarField;
    location    "87.5";
    object      k;
}
// * * * * * * * * * * * * * * * * * * * * * * * * * * * * * * * * * * * * * //

dimensions      [0 2 -2 0 0 0 0];


internalField   nonuniform List<scalar> 
171728
(
7.42505e-06
1.38275e-06
1.01527e-06
4.14274e-07
7.54872e-06
1.5099e-06
1.11603e-06
4.02001e-07
7.82326e-06
1.66236e-06
1.27864e-06
4.21437e-07
8.08622e-06
1.78449e-06
1.45908e-06
4.55063e-07
8.34089e-06
1.82714e-06
1.66797e-06
4.99178e-07
8.57813e-06
1.92348e-06
1.91074e-06
5.69003e-07
8.83177e-06
2.17998e-06
2.19771e-06
6.74468e-07
9.10122e-06
2.51043e-06
2.54632e-06
8.27504e-07
9.373e-06
2.91927e-06
2.96709e-06
1.09428e-06
9.64695e-06
3.41228e-06
3.45554e-06
1.4811e-06
9.92354e-06
4.00152e-06
4.02344e-06
1.92096e-06
1.02017e-05
4.62533e-06
4.66944e-06
2.41874e-06
1.0538e-05
5.40135e-06
5.44158e-06
3.08131e-06
1.09129e-05
6.2505e-06
6.29066e-06
3.96337e-06
1.13945e-05
7.28266e-06
7.30611e-06
5.18417e-06
1.19859e-05
8.46953e-06
8.48825e-06
6.76866e-06
1.27081e-05
9.98327e-06
9.9897e-06
8.88086e-06
1.36173e-05
1.19907e-05
1.20031e-05
1.18212e-05
1.48127e-05
1.46379e-05
1.46462e-05
1.57259e-05
1.599e-05
1.7351e-05
1.73538e-05
1.95076e-05
1.71678e-05
1.98649e-05
1.98664e-05
2.25282e-05
1.80063e-05
2.13596e-05
2.13608e-05
2.41186e-05
1.83506e-05
2.18549e-05
2.18561e-05
2.45482e-05
1.84388e-05
2.19598e-05
2.19609e-05
2.46264e-05
1.84555e-05
2.1978e-05
2.19791e-05
2.46424e-05
1.84583e-05
2.19807e-05
2.19818e-05
2.46435e-05
1.84588e-05
2.19811e-05
2.19822e-05
2.46432e-05
1.84591e-05
2.19814e-05
2.19825e-05
2.46438e-05
1.84594e-05
2.19816e-05
2.19827e-05
2.46438e-05
1.84596e-05
2.19819e-05
2.19829e-05
2.46441e-05
1.84598e-05
2.19822e-05
2.19832e-05
2.46442e-05
1.846e-05
2.19823e-05
2.19834e-05
2.46439e-05
1.84601e-05
2.19823e-05
2.19834e-05
2.4644e-05
1.84602e-05
2.19823e-05
2.19834e-05
2.46441e-05
1.84603e-05
2.19823e-05
2.19834e-05
2.46439e-05
1.84603e-05
2.19823e-05
2.19834e-05
2.4644e-05
1.84603e-05
2.19823e-05
2.19834e-05
2.46446e-05
1.84604e-05
2.19823e-05
2.19834e-05
2.46451e-05
1.84603e-05
2.19823e-05
2.19834e-05
2.46455e-05
1.84603e-05
2.19823e-05
2.19834e-05
2.46459e-05
1.84603e-05
2.19823e-05
2.19834e-05
2.46461e-05
1.84604e-05
2.19823e-05
2.19833e-05
2.46461e-05
1.84603e-05
2.19823e-05
2.19833e-05
2.46463e-05
1.84603e-05
2.19823e-05
2.19833e-05
2.46464e-05
1.84602e-05
2.19823e-05
2.19833e-05
2.46464e-05
1.84602e-05
2.19823e-05
2.19833e-05
2.46464e-05
1.84603e-05
2.19823e-05
2.19833e-05
2.46465e-05
1.84603e-05
2.19823e-05
2.19832e-05
2.46465e-05
1.84603e-05
2.19824e-05
2.19833e-05
2.46465e-05
1.84603e-05
2.19824e-05
2.19833e-05
2.46465e-05
1.84603e-05
2.19824e-05
2.19833e-05
2.46464e-05
1.84603e-05
2.19824e-05
2.19833e-05
2.46464e-05
1.84603e-05
2.19824e-05
2.19833e-05
2.46466e-05
1.84604e-05
2.19824e-05
2.19833e-05
2.46465e-05
1.84604e-05
2.19824e-05
2.19833e-05
2.46464e-05
1.84603e-05
2.19824e-05
2.19833e-05
2.46463e-05
1.84603e-05
2.19824e-05
2.19833e-05
2.46464e-05
1.84603e-05
2.19824e-05
2.19832e-05
2.46465e-05
1.84603e-05
2.19824e-05
2.19832e-05
2.46465e-05
1.84603e-05
2.19824e-05
2.19833e-05
2.46465e-05
1.84603e-05
2.19824e-05
2.19833e-05
2.46464e-05
1.84602e-05
2.19824e-05
2.19833e-05
2.46465e-05
1.84602e-05
2.19824e-05
2.19833e-05
2.46464e-05
1.84602e-05
2.19824e-05
2.19833e-05
2.46463e-05
1.84602e-05
2.19823e-05
2.19833e-05
2.46462e-05
1.84602e-05
2.19823e-05
2.19833e-05
2.46463e-05
1.84603e-05
2.19823e-05
2.19832e-05
2.46464e-05
1.84603e-05
2.19823e-05
2.19832e-05
2.46464e-05
1.84603e-05
2.19823e-05
2.19832e-05
2.46465e-05
1.84603e-05
2.19823e-05
2.19832e-05
2.46464e-05
1.84603e-05
2.19824e-05
2.19832e-05
2.46466e-05
1.84603e-05
2.19823e-05
2.19832e-05
2.46465e-05
1.84603e-05
2.19824e-05
2.19832e-05
2.46462e-05
1.84603e-05
2.19824e-05
2.19833e-05
2.46463e-05
1.84603e-05
2.19824e-05
2.19833e-05
2.46464e-05
1.84603e-05
2.19825e-05
2.19833e-05
2.46462e-05
1.84603e-05
2.19825e-05
2.19833e-05
2.46464e-05
1.84603e-05
2.19825e-05
2.19833e-05
2.46466e-05
1.84603e-05
2.19825e-05
2.19833e-05
2.46463e-05
1.84603e-05
2.19825e-05
2.19833e-05
2.46462e-05
1.84604e-05
2.19826e-05
2.19833e-05
2.46465e-05
1.84604e-05
2.19826e-05
2.19834e-05
2.46466e-05
1.84605e-05
2.19826e-05
2.19834e-05
2.46464e-05
1.84605e-05
2.19827e-05
2.19835e-05
2.46464e-05
1.84606e-05
2.19827e-05
2.19835e-05
2.46465e-05
1.84606e-05
2.19828e-05
2.19836e-05
2.46466e-05
1.84607e-05
2.19828e-05
2.19836e-05
2.46467e-05
1.84607e-05
2.19829e-05
2.19837e-05
2.46467e-05
1.84608e-05
2.1983e-05
2.19839e-05
2.46465e-05
1.84609e-05
2.19832e-05
2.1984e-05
2.46464e-05
1.8461e-05
2.19835e-05
2.19843e-05
2.46468e-05
1.84611e-05
2.19839e-05
2.19847e-05
2.46471e-05
1.84611e-05
2.19845e-05
2.19853e-05
2.46469e-05
1.84585e-05
2.19822e-05
2.19829e-05
2.46437e-05
1.8359e-05
2.155e-05
2.15499e-05
2.42103e-05
4.31621e-07
7.39025e-07
7.85608e-07
4.02027e-07
8.16047e-07
7.43604e-07
7.53412e-06
7.51403e-06
7.48623e-06
7.50738e-06
8.679e-07
7.57552e-07
3.78094e-07
7.13385e-07
7.08485e-07
4.20345e-07
4.2817e-07
4.29985e-07
1.01109e-06
1.11571e-06
1.08694e-06
1.19226e-06
3.99818e-07
4.17573e-07
1.25859e-06
1.07071e-06
1.33735e-06
1.13359e-06
1.04236e-06
1.46968e-06
1.1117e-06
3.71435e-07
3.60398e-07
9.93055e-07
1.08281e-06
1.06496e-06
4.05182e-07
4.26675e-07
4.49019e-07
1.12245e-06
1.23099e-06
1.26515e-06
1.35294e-06
4.14758e-07
4.53677e-07
1.37703e-06
1.16693e-06
1.50468e-06
1.27549e-06
1.14725e-06
1.62515e-06
1.26241e-06
3.56573e-07
3.77046e-07
1.10203e-06
1.23613e-06
1.22251e-06
4.23661e-07
4.46242e-07
4.97973e-07
1.31433e-06
1.39494e-06
1.46295e-06
1.53441e-06
4.50794e-07
4.92059e-07
1.55288e-06
1.31495e-06
1.7018e-06
1.4435e-06
1.30407e-06
1.7602e-06
1.43716e-06
3.74755e-07
4.18861e-07
1.2662e-06
1.41214e-06
1.40641e-06
4.57558e-07
4.95768e-07
5.70894e-07
1.51403e-06
1.58286e-06
1.68356e-06
1.74238e-06
4.88027e-07
5.24305e-07
1.75312e-06
1.48858e-06
1.91146e-06
1.63445e-06
1.48256e-06
1.82317e-06
1.63538e-06
4.16749e-07
4.79032e-07
1.45514e-06
1.6162e-06
1.61506e-06
5.01702e-07
5.69822e-07
6.6358e-07
1.74488e-06
1.79763e-06
1.94088e-06
1.98463e-06
5.2041e-07
5.83733e-07
1.96278e-06
1.68503e-06
2.11185e-06
1.86497e-06
1.68841e-06
1.87001e-06
1.86067e-06
4.77579e-07
5.64629e-07
1.67137e-06
1.84577e-06
1.85295e-06
5.7034e-07
6.62108e-07
7.61882e-07
2.00891e-06
2.05282e-06
2.22855e-06
2.28161e-06
5.82279e-07
6.94642e-07
2.14522e-06
1.92923e-06
2.1987e-06
2.13142e-06
1.92348e-06
2.10796e-06
2.13085e-06
5.64054e-07
6.79734e-07
1.91994e-06
2.11895e-06
2.13989e-06
6.74662e-07
7.61693e-07
9.27352e-07
2.31119e-06
2.36815e-06
2.57069e-06
2.63436e-06
6.9518e-07
8.60429e-07
2.23026e-06
2.20401e-06
2.40381e-06
2.41852e-06
2.21307e-06
2.42181e-06
2.46515e-06
6.80454e-07
8.3884e-07
2.22145e-06
2.45204e-06
2.48282e-06
8.22912e-07
9.3313e-07
1.1778e-06
2.66923e-06
2.72543e-06
2.98676e-06
2.97963e-06
8.6537e-07
1.10379e-06
2.48182e-06
2.50097e-06
2.76553e-06
2.78597e-06
2.55855e-06
2.80948e-06
2.87443e-06
8.44217e-07
1.08926e-06
2.57754e-06
2.85751e-06
2.89098e-06
1.07965e-06
1.18972e-06
1.51414e-06
3.09638e-06
3.05903e-06
3.45828e-06
3.31851e-06
1.11587e-06
1.44584e-06
2.87383e-06
2.89174e-06
3.23822e-06
3.25745e-06
2.98855e-06
3.27954e-06
3.36282e-06
1.1027e-06
1.45276e-06
3.00714e-06
3.32994e-06
3.38725e-06
1.4603e-06
1.53207e-06
1.93809e-06
3.58518e-06
3.42172e-06
3.97897e-06
3.80262e-06
1.46453e-06
1.87732e-06
3.36886e-06
3.39105e-06
3.78841e-06
3.81844e-06
3.49508e-06
3.85009e-06
3.91393e-06
1.47337e-06
1.89101e-06
3.52137e-06
3.86887e-06
3.94295e-06
1.89865e-06
1.96168e-06
2.43506e-06
4.12286e-06
3.95386e-06
4.569e-06
4.4249e-06
1.90126e-06
2.39273e-06
3.94367e-06
3.97486e-06
4.41297e-06
4.44364e-06
4.06423e-06
4.46077e-06
4.5157e-06
1.91484e-06
2.40143e-06
4.09299e-06
4.50028e-06
4.54812e-06
2.38871e-06
2.46561e-06
3.08942e-06
4.72716e-06
4.59285e-06
5.28425e-06
5.16316e-06
2.4256e-06
3.06647e-06
4.58005e-06
4.61001e-06
5.15739e-06
5.1828e-06
4.67378e-06
5.20644e-06
5.20705e-06
2.43401e-06
3.07775e-06
4.70969e-06
5.24806e-06
5.24932e-06
3.03432e-06
3.13889e-06
3.95515e-06
5.4802e-06
5.36311e-06
6.09138e-06
5.99427e-06
3.11523e-06
3.92758e-06
5.35665e-06
5.3802e-06
5.98597e-06
6.00754e-06
5.38734e-06
6.01512e-06
5.99508e-06
3.12758e-06
3.94709e-06
5.4308e-06
6.05871e-06
6.02646e-06
3.89119e-06
4.02352e-06
5.05519e-06
6.3199e-06
6.22829e-06
7.06611e-06
6.98676e-06
3.99574e-06
5.03372e-06
6.22353e-06
6.24462e-06
6.98911e-06
7.00757e-06
6.23993e-06
7.02055e-06
7.02544e-06
4.01555e-06
5.05253e-06
6.26454e-06
7.04556e-06
7.0433e-06
5.03424e-06
5.20261e-06
6.49253e-06
7.32667e-06
7.25245e-06
8.17841e-06
8.12643e-06
5.18381e-06
6.4802e-06
7.2541e-06
7.27052e-06
8.12504e-06
8.13556e-06
7.29047e-06
8.14151e-06
8.15025e-06
5.20218e-06
6.49281e-06
7.30845e-06
8.16339e-06
8.16623e-06
6.49825e-06
6.76037e-06
8.48197e-06
8.50258e-06
8.45888e-06
9.59864e-06
9.56616e-06
6.74974e-06
8.47857e-06
8.45721e-06
8.46642e-06
9.56603e-06
9.57221e-06
8.47752e-06
9.57601e-06
9.57321e-06
6.7626e-06
8.48475e-06
8.49233e-06
9.58327e-06
9.58522e-06
8.48754e-06
8.87961e-06
1.12725e-05
1.00056e-05
9.97414e-06
1.14316e-05
1.14081e-05
8.87489e-06
1.12608e-05
9.97492e-06
9.98063e-06
1.14102e-05
1.14177e-05
9.97892e-06
1.14155e-05
1.14089e-05
8.87891e-06
1.12725e-05
9.98993e-06
1.14268e-05
1.14163e-05
1.12609e-05
1.18328e-05
1.50344e-05
1.20045e-05
1.19855e-05
1.39627e-05
1.39556e-05
1.18216e-05
1.50306e-05
1.19874e-05
1.19956e-05
1.39565e-05
1.39636e-05
1.19856e-05
1.39576e-05
1.39546e-05
1.18358e-05
1.50443e-05
1.19916e-05
1.39676e-05
1.39572e-05
1.50297e-05
1.57298e-05
1.89e-05
1.4642e-05
1.46375e-05
1.66697e-05
1.66688e-05
1.5727e-05
1.88994e-05
1.46381e-05
1.46441e-05
1.66686e-05
1.66719e-05
1.46364e-05
1.66684e-05
1.66681e-05
1.57388e-05
1.89036e-05
1.46383e-05
1.66721e-05
1.66684e-05
1.88994e-05
1.95082e-05
2.20785e-05
1.73526e-05
1.73523e-05
1.93079e-05
1.93081e-05
1.95077e-05
2.20779e-05
1.73518e-05
1.73546e-05
1.93071e-05
1.9309e-05
1.73516e-05
1.93067e-05
1.9308e-05
1.95109e-05
2.20796e-05
1.73517e-05
1.93084e-05
1.93074e-05
2.2079e-05
2.25278e-05
2.39212e-05
1.98664e-05
1.98668e-05
2.11005e-05
2.11009e-05
2.25272e-05
2.39203e-05
1.98657e-05
1.98674e-05
2.10998e-05
2.1101e-05
1.98667e-05
2.10992e-05
2.1101e-05
2.25287e-05
2.39214e-05
1.98661e-05
2.11004e-05
2.11003e-05
2.39217e-05
2.41183e-05
2.44948e-05
2.13612e-05
2.13616e-05
2.17905e-05
2.17907e-05
2.41173e-05
2.44938e-05
2.13605e-05
2.13616e-05
2.17897e-05
2.17906e-05
2.13617e-05
2.1789e-05
2.17911e-05
2.41182e-05
2.44948e-05
2.13611e-05
2.17901e-05
2.17905e-05
2.44957e-05
2.45474e-05
2.46002e-05
2.18566e-05
2.18567e-05
2.19493e-05
2.19494e-05
2.45464e-05
2.45991e-05
2.18558e-05
2.18567e-05
2.19485e-05
2.19493e-05
2.18572e-05
2.19476e-05
2.19497e-05
2.45472e-05
2.45999e-05
2.18566e-05
2.19487e-05
2.19492e-05
2.46009e-05
2.46259e-05
2.4621e-05
2.19615e-05
2.19616e-05
2.19776e-05
2.19777e-05
2.46248e-05
2.46198e-05
2.19608e-05
2.19615e-05
2.19769e-05
2.19776e-05
2.1962e-05
2.19759e-05
2.19779e-05
2.46255e-05
2.46206e-05
2.19614e-05
2.1977e-05
2.19774e-05
2.46214e-05
2.46421e-05
2.46239e-05
2.19797e-05
2.19798e-05
2.19823e-05
2.19823e-05
2.46409e-05
2.46227e-05
2.1979e-05
2.19797e-05
2.19815e-05
2.19822e-05
2.198e-05
2.19805e-05
2.19823e-05
2.46416e-05
2.46235e-05
2.19795e-05
2.19816e-05
2.19818e-05
2.4624e-05
2.46435e-05
2.46232e-05
2.19825e-05
2.19826e-05
2.19828e-05
2.19829e-05
2.46424e-05
2.46221e-05
2.19818e-05
2.19824e-05
2.19821e-05
2.19827e-05
2.19825e-05
2.19811e-05
2.19827e-05
2.4643e-05
2.46228e-05
2.1982e-05
2.19821e-05
2.19822e-05
2.46232e-05
2.46433e-05
2.4624e-05
2.19829e-05
2.1983e-05
2.19831e-05
2.19832e-05
2.46422e-05
2.46228e-05
2.19822e-05
2.19828e-05
2.19824e-05
2.1983e-05
2.19828e-05
2.19814e-05
2.1983e-05
2.46428e-05
2.46236e-05
2.19823e-05
2.19824e-05
2.19825e-05
2.4624e-05
2.46438e-05
2.46239e-05
2.19831e-05
2.19833e-05
2.19833e-05
2.19834e-05
2.46427e-05
2.46228e-05
2.19825e-05
2.19831e-05
2.19827e-05
2.19833e-05
2.19831e-05
2.19816e-05
2.19833e-05
2.46433e-05
2.46235e-05
2.19826e-05
2.19826e-05
2.19827e-05
2.46239e-05
2.46439e-05
2.46243e-05
2.19834e-05
2.19835e-05
2.19836e-05
2.19837e-05
2.46427e-05
2.46231e-05
2.19828e-05
2.19833e-05
2.1983e-05
2.19835e-05
2.19833e-05
2.19818e-05
2.19835e-05
2.46434e-05
2.46239e-05
2.19828e-05
2.19829e-05
2.1983e-05
2.46243e-05
2.46442e-05
2.46243e-05
2.19837e-05
2.19838e-05
2.19838e-05
2.1984e-05
2.4643e-05
2.46233e-05
2.19831e-05
2.19836e-05
2.19833e-05
2.19839e-05
2.19836e-05
2.19821e-05
2.19838e-05
2.46437e-05
2.4624e-05
2.19831e-05
2.19831e-05
2.19832e-05
2.46244e-05
2.46442e-05
2.46244e-05
2.19838e-05
2.19841e-05
2.19838e-05
2.19842e-05
2.46432e-05
2.46233e-05
2.19834e-05
2.19839e-05
2.19835e-05
2.1984e-05
2.19838e-05
2.19823e-05
2.19838e-05
2.46438e-05
2.46241e-05
2.19833e-05
2.19833e-05
2.19833e-05
2.46241e-05
2.46443e-05
2.46242e-05
2.19838e-05
2.19842e-05
2.19838e-05
2.19842e-05
2.46432e-05
2.46231e-05
2.19835e-05
2.1984e-05
2.19835e-05
2.1984e-05
2.19839e-05
2.19823e-05
2.19838e-05
2.46439e-05
2.46239e-05
2.19833e-05
2.19834e-05
2.19833e-05
2.46243e-05
2.46442e-05
2.46242e-05
2.19838e-05
2.19843e-05
2.19838e-05
2.19842e-05
2.46431e-05
2.46232e-05
2.19835e-05
2.1984e-05
2.19835e-05
2.1984e-05
2.19839e-05
2.19824e-05
2.19838e-05
2.46437e-05
2.4624e-05
2.19833e-05
2.19834e-05
2.19833e-05
2.46244e-05
2.4644e-05
2.46247e-05
2.19838e-05
2.19842e-05
2.19838e-05
2.19842e-05
2.4643e-05
2.46237e-05
2.19836e-05
2.1984e-05
2.19836e-05
2.1984e-05
2.19839e-05
2.19824e-05
2.19838e-05
2.46437e-05
2.46244e-05
2.19833e-05
2.19834e-05
2.19833e-05
2.46242e-05
2.46444e-05
2.46248e-05
2.19838e-05
2.19842e-05
2.19838e-05
2.19842e-05
2.46435e-05
2.46235e-05
2.19836e-05
2.1984e-05
2.19836e-05
2.1984e-05
2.19839e-05
2.19823e-05
2.19838e-05
2.46441e-05
2.46243e-05
2.19833e-05
2.19834e-05
2.19833e-05
2.46246e-05
2.46448e-05
2.46243e-05
2.19838e-05
2.19842e-05
2.19838e-05
2.19842e-05
2.46437e-05
2.46231e-05
2.19836e-05
2.1984e-05
2.19836e-05
2.1984e-05
2.19839e-05
2.19823e-05
2.19839e-05
2.46443e-05
2.46239e-05
2.19833e-05
2.19833e-05
2.19833e-05
2.46252e-05
2.46445e-05
2.46241e-05
2.19838e-05
2.19842e-05
2.19838e-05
2.19842e-05
2.46433e-05
2.46229e-05
2.19836e-05
2.1984e-05
2.19836e-05
2.1984e-05
2.19839e-05
2.19823e-05
2.19839e-05
2.4644e-05
2.46238e-05
2.19833e-05
2.19834e-05
2.19833e-05
2.46255e-05
2.46442e-05
2.46241e-05
2.19838e-05
2.19843e-05
2.19837e-05
2.19842e-05
2.46431e-05
2.4623e-05
2.19836e-05
2.1984e-05
2.19836e-05
2.1984e-05
2.19839e-05
2.19823e-05
2.19839e-05
2.46438e-05
2.46239e-05
2.19833e-05
2.19834e-05
2.19833e-05
2.46256e-05
2.46441e-05
2.46242e-05
2.19838e-05
2.19843e-05
2.19837e-05
2.19842e-05
2.46431e-05
2.46231e-05
2.19836e-05
2.1984e-05
2.19836e-05
2.1984e-05
2.19839e-05
2.19823e-05
2.19839e-05
2.46438e-05
2.4624e-05
2.19833e-05
2.19834e-05
2.19833e-05
2.46259e-05
2.46442e-05
2.46243e-05
2.19838e-05
2.19843e-05
2.19837e-05
2.19842e-05
2.46431e-05
2.46232e-05
2.19836e-05
2.1984e-05
2.19836e-05
2.1984e-05
2.19839e-05
2.19823e-05
2.19839e-05
2.46439e-05
2.46239e-05
2.19833e-05
2.19833e-05
2.19833e-05
2.46259e-05
2.46442e-05
2.46243e-05
2.19837e-05
2.19842e-05
2.19837e-05
2.19842e-05
2.46432e-05
2.46233e-05
2.19836e-05
2.1984e-05
2.19836e-05
2.1984e-05
2.19839e-05
2.19823e-05
2.19838e-05
2.46439e-05
2.46239e-05
2.19833e-05
2.19833e-05
2.19833e-05
2.46259e-05
2.46442e-05
2.46242e-05
2.19837e-05
2.19842e-05
2.19837e-05
2.19842e-05
2.46433e-05
2.46232e-05
2.19837e-05
2.1984e-05
2.19836e-05
2.1984e-05
2.19839e-05
2.19823e-05
2.19838e-05
2.46438e-05
2.46239e-05
2.19833e-05
2.19833e-05
2.19833e-05
2.46261e-05
2.46442e-05
2.46243e-05
2.19837e-05
2.19842e-05
2.19837e-05
2.19842e-05
2.46433e-05
2.46232e-05
2.19836e-05
2.1984e-05
2.19836e-05
2.1984e-05
2.19838e-05
2.19823e-05
2.19838e-05
2.46438e-05
2.46239e-05
2.19833e-05
2.19833e-05
2.19833e-05
2.46262e-05
2.46442e-05
2.46243e-05
2.19838e-05
2.19842e-05
2.19837e-05
2.19842e-05
2.46432e-05
2.46231e-05
2.19836e-05
2.1984e-05
2.19836e-05
2.1984e-05
2.19839e-05
2.19823e-05
2.19839e-05
2.46439e-05
2.46238e-05
2.19833e-05
2.19833e-05
2.19833e-05
2.46262e-05
2.46443e-05
2.46243e-05
2.19838e-05
2.19842e-05
2.19838e-05
2.19842e-05
2.46432e-05
2.46231e-05
2.19836e-05
2.1984e-05
2.19836e-05
2.1984e-05
2.19839e-05
2.19823e-05
2.19839e-05
2.46438e-05
2.46238e-05
2.19833e-05
2.19833e-05
2.19833e-05
2.46262e-05
2.46443e-05
2.46243e-05
2.19839e-05
2.19843e-05
2.19839e-05
2.19842e-05
2.46432e-05
2.46231e-05
2.19836e-05
2.1984e-05
2.19835e-05
2.1984e-05
2.19839e-05
2.19823e-05
2.19839e-05
2.46438e-05
2.46238e-05
2.19833e-05
2.19833e-05
2.19833e-05
2.46263e-05
2.46443e-05
2.46243e-05
2.19839e-05
2.19842e-05
2.19839e-05
2.19842e-05
2.46432e-05
2.46232e-05
2.19835e-05
2.1984e-05
2.19835e-05
2.1984e-05
2.19839e-05
2.19823e-05
2.19839e-05
2.46438e-05
2.46238e-05
2.19833e-05
2.19832e-05
2.19833e-05
2.46263e-05
2.46443e-05
2.46244e-05
2.1984e-05
2.19842e-05
2.1984e-05
2.19842e-05
2.46432e-05
2.46233e-05
2.19835e-05
2.1984e-05
2.19835e-05
2.1984e-05
2.19839e-05
2.19824e-05
2.19838e-05
2.46438e-05
2.46238e-05
2.19833e-05
2.19833e-05
2.19833e-05
2.46263e-05
2.46444e-05
2.46243e-05
2.1984e-05
2.19842e-05
2.1984e-05
2.19842e-05
2.46433e-05
2.46232e-05
2.19835e-05
2.1984e-05
2.19834e-05
2.1984e-05
2.19838e-05
2.19824e-05
2.19838e-05
2.46438e-05
2.46238e-05
2.19833e-05
2.19833e-05
2.19833e-05
2.46263e-05
2.46444e-05
2.46243e-05
2.19841e-05
2.19842e-05
2.19841e-05
2.19842e-05
2.46433e-05
2.46232e-05
2.19835e-05
2.1984e-05
2.19834e-05
2.1984e-05
2.19838e-05
2.19824e-05
2.19838e-05
2.46438e-05
2.46238e-05
2.19833e-05
2.19833e-05
2.19833e-05
2.46262e-05
2.46444e-05
2.46244e-05
2.19841e-05
2.19842e-05
2.19841e-05
2.19842e-05
2.46432e-05
2.46233e-05
2.19835e-05
2.1984e-05
2.19835e-05
2.1984e-05
2.19838e-05
2.19824e-05
2.19838e-05
2.46438e-05
2.46238e-05
2.19833e-05
2.19833e-05
2.19832e-05
2.46262e-05
2.46444e-05
2.46244e-05
2.19841e-05
2.19843e-05
2.19841e-05
2.19842e-05
2.46433e-05
2.46233e-05
2.19835e-05
2.1984e-05
2.19835e-05
2.1984e-05
2.19839e-05
2.19824e-05
2.19838e-05
2.46438e-05
2.46239e-05
2.19833e-05
2.19833e-05
2.19832e-05
2.46263e-05
2.46444e-05
2.46244e-05
2.19842e-05
2.19843e-05
2.19842e-05
2.19842e-05
2.46433e-05
2.46233e-05
2.19835e-05
2.1984e-05
2.19835e-05
2.1984e-05
2.19839e-05
2.19824e-05
2.19838e-05
2.46438e-05
2.46239e-05
2.19832e-05
2.19833e-05
2.19832e-05
2.46262e-05
2.46444e-05
2.46244e-05
2.19842e-05
2.19843e-05
2.19842e-05
2.19842e-05
2.46433e-05
2.46233e-05
2.19835e-05
2.1984e-05
2.19835e-05
2.1984e-05
2.19838e-05
2.19824e-05
2.19838e-05
2.46438e-05
2.46239e-05
2.19832e-05
2.19833e-05
2.19832e-05
2.4626e-05
2.46444e-05
2.46245e-05
2.19843e-05
2.19843e-05
2.19842e-05
2.19843e-05
2.46433e-05
2.46233e-05
2.19835e-05
2.1984e-05
2.19834e-05
2.1984e-05
2.19839e-05
2.19824e-05
2.19839e-05
2.46438e-05
2.46239e-05
2.19833e-05
2.19833e-05
2.19832e-05
2.46261e-05
2.46444e-05
2.46245e-05
2.19842e-05
2.19843e-05
2.19842e-05
2.19843e-05
2.46434e-05
2.46233e-05
2.19835e-05
2.1984e-05
2.19834e-05
2.19839e-05
2.19839e-05
2.19824e-05
2.19839e-05
2.46438e-05
2.46238e-05
2.19832e-05
2.19833e-05
2.19832e-05
2.46262e-05
2.46445e-05
2.46245e-05
2.19842e-05
2.19843e-05
2.19842e-05
2.19843e-05
2.46434e-05
2.46232e-05
2.19835e-05
2.1984e-05
2.19834e-05
2.19839e-05
2.19839e-05
2.19824e-05
2.19839e-05
2.46438e-05
2.46238e-05
2.19832e-05
2.19832e-05
2.19832e-05
2.46263e-05
2.46445e-05
2.46245e-05
2.19842e-05
2.19843e-05
2.19842e-05
2.19842e-05
2.46433e-05
2.46233e-05
2.19834e-05
2.1984e-05
2.19834e-05
2.1984e-05
2.19839e-05
2.19824e-05
2.19839e-05
2.46438e-05
2.46238e-05
2.19832e-05
2.19832e-05
2.19832e-05
2.46263e-05
2.46445e-05
2.46244e-05
2.19842e-05
2.19843e-05
2.19842e-05
2.19842e-05
2.46433e-05
2.46233e-05
2.19834e-05
2.1984e-05
2.19834e-05
2.1984e-05
2.19839e-05
2.19824e-05
2.19838e-05
2.46438e-05
2.46238e-05
2.19832e-05
2.19833e-05
2.19831e-05
2.46262e-05
2.46445e-05
2.46244e-05
2.19842e-05
2.19843e-05
2.19842e-05
2.19842e-05
2.46433e-05
2.46233e-05
2.19834e-05
2.1984e-05
2.19834e-05
2.1984e-05
2.19838e-05
2.19824e-05
2.19838e-05
2.46438e-05
2.46238e-05
2.19832e-05
2.19833e-05
2.19831e-05
2.46262e-05
2.46444e-05
2.46244e-05
2.19842e-05
2.19843e-05
2.19841e-05
2.19842e-05
2.46434e-05
2.46233e-05
2.19834e-05
2.1984e-05
2.19833e-05
2.1984e-05
2.19838e-05
2.19824e-05
2.19838e-05
2.46438e-05
2.46238e-05
2.19831e-05
2.19833e-05
2.19831e-05
2.46263e-05
2.46444e-05
2.46244e-05
2.19842e-05
2.19843e-05
2.19841e-05
2.19842e-05
2.46434e-05
2.46233e-05
2.19834e-05
2.1984e-05
2.19833e-05
2.1984e-05
2.19838e-05
2.19824e-05
2.19838e-05
2.46438e-05
2.46238e-05
2.19831e-05
2.19833e-05
2.1983e-05
2.46261e-05
2.46444e-05
2.46244e-05
2.19842e-05
2.19843e-05
2.19841e-05
2.19842e-05
2.46433e-05
2.46233e-05
2.19833e-05
2.1984e-05
2.19833e-05
2.19839e-05
2.19838e-05
2.19824e-05
2.19838e-05
2.46438e-05
2.46239e-05
2.19831e-05
2.19833e-05
2.19831e-05
2.4626e-05
2.46444e-05
2.46244e-05
2.19842e-05
2.19843e-05
2.19841e-05
2.19842e-05
2.46433e-05
2.46233e-05
2.19833e-05
2.1984e-05
2.19833e-05
2.19839e-05
2.19838e-05
2.19824e-05
2.19838e-05
2.46439e-05
2.46239e-05
2.19831e-05
2.19833e-05
2.19831e-05
2.4626e-05
2.46444e-05
2.46244e-05
2.19841e-05
2.19842e-05
2.19841e-05
2.19842e-05
2.46433e-05
2.46232e-05
2.19833e-05
2.1984e-05
2.19833e-05
2.19839e-05
2.19838e-05
2.19823e-05
2.19838e-05
2.46439e-05
2.46238e-05
2.19831e-05
2.19833e-05
2.19831e-05
2.46261e-05
2.46444e-05
2.46244e-05
2.19842e-05
2.19843e-05
2.19842e-05
2.19842e-05
2.46433e-05
2.46232e-05
2.19833e-05
2.1984e-05
2.19833e-05
2.1984e-05
2.19838e-05
2.19823e-05
2.19838e-05
2.46438e-05
2.46238e-05
2.19831e-05
2.19832e-05
2.19831e-05
2.46262e-05
2.46444e-05
2.46244e-05
2.19842e-05
2.19843e-05
2.19842e-05
2.19842e-05
2.46433e-05
2.46232e-05
2.19833e-05
2.1984e-05
2.19833e-05
2.1984e-05
2.19838e-05
2.19823e-05
2.19838e-05
2.46438e-05
2.46238e-05
2.19831e-05
2.19832e-05
2.19831e-05
2.46262e-05
2.46444e-05
2.46244e-05
2.19842e-05
2.19842e-05
2.19842e-05
2.19842e-05
2.46433e-05
2.46232e-05
2.19834e-05
2.1984e-05
2.19833e-05
2.1984e-05
2.19839e-05
2.19823e-05
2.19838e-05
2.46438e-05
2.46238e-05
2.19831e-05
2.19832e-05
2.19831e-05
2.46262e-05
2.46444e-05
2.46244e-05
2.19842e-05
2.19842e-05
2.19842e-05
2.19842e-05
2.46433e-05
2.46232e-05
2.19834e-05
2.1984e-05
2.19833e-05
2.1984e-05
2.19838e-05
2.19823e-05
2.19838e-05
2.46438e-05
2.46238e-05
2.19831e-05
2.19832e-05
2.19831e-05
2.46262e-05
2.46444e-05
2.46244e-05
2.19842e-05
2.19842e-05
2.19842e-05
2.19842e-05
2.46432e-05
2.46232e-05
2.19833e-05
2.1984e-05
2.19833e-05
2.1984e-05
2.19838e-05
2.19823e-05
2.19838e-05
2.46438e-05
2.46238e-05
2.19831e-05
2.19832e-05
2.19831e-05
2.46263e-05
2.46444e-05
2.46244e-05
2.19842e-05
2.19842e-05
2.19842e-05
2.19842e-05
2.46433e-05
2.46233e-05
2.19833e-05
2.1984e-05
2.19833e-05
2.19839e-05
2.19838e-05
2.19823e-05
2.19838e-05
2.46438e-05
2.46238e-05
2.19831e-05
2.19832e-05
2.19831e-05
2.46261e-05
2.46444e-05
2.46244e-05
2.19842e-05
2.19842e-05
2.19842e-05
2.19842e-05
2.46433e-05
2.46233e-05
2.19834e-05
2.1984e-05
2.19833e-05
2.19839e-05
2.19839e-05
2.19823e-05
2.19838e-05
2.46438e-05
2.46238e-05
2.19831e-05
2.19832e-05
2.19831e-05
2.46259e-05
2.46444e-05
2.46244e-05
2.19842e-05
2.19842e-05
2.19842e-05
2.19842e-05
2.46433e-05
2.46232e-05
2.19834e-05
2.1984e-05
2.19833e-05
2.19839e-05
2.19838e-05
2.19824e-05
2.19838e-05
2.46438e-05
2.46238e-05
2.19831e-05
2.19832e-05
2.19831e-05
2.46261e-05
2.46444e-05
2.46244e-05
2.19842e-05
2.19842e-05
2.19842e-05
2.19842e-05
2.46433e-05
2.46232e-05
2.19834e-05
2.1984e-05
2.19833e-05
2.1984e-05
2.19838e-05
2.19824e-05
2.19838e-05
2.46438e-05
2.46238e-05
2.19831e-05
2.19832e-05
2.19831e-05
2.46261e-05
2.46444e-05
2.46244e-05
2.19842e-05
2.19843e-05
2.19842e-05
2.19842e-05
2.46433e-05
2.46233e-05
2.19834e-05
2.1984e-05
2.19833e-05
2.1984e-05
2.19838e-05
2.19824e-05
2.19838e-05
2.46438e-05
2.46239e-05
2.19831e-05
2.19832e-05
2.1983e-05
2.4626e-05
2.46444e-05
2.46244e-05
2.19842e-05
2.19843e-05
2.19842e-05
2.19842e-05
2.46433e-05
2.46232e-05
2.19834e-05
2.1984e-05
2.19833e-05
2.19839e-05
2.19838e-05
2.19825e-05
2.19838e-05
2.46438e-05
2.46239e-05
2.19831e-05
2.19833e-05
2.19831e-05
2.46263e-05
2.46444e-05
2.46244e-05
2.19842e-05
2.19843e-05
2.19842e-05
2.19842e-05
2.46433e-05
2.46233e-05
2.19834e-05
2.1984e-05
2.19833e-05
2.19839e-05
2.19839e-05
2.19825e-05
2.19838e-05
2.46439e-05
2.46239e-05
2.19831e-05
2.19833e-05
2.19831e-05
2.46263e-05
2.46444e-05
2.46244e-05
2.19842e-05
2.19843e-05
2.19842e-05
2.19842e-05
2.46433e-05
2.46233e-05
2.19834e-05
2.1984e-05
2.19833e-05
2.1984e-05
2.19839e-05
2.19825e-05
2.19839e-05
2.46439e-05
2.46238e-05
2.19832e-05
2.19833e-05
2.19831e-05
2.4626e-05
2.46444e-05
2.46244e-05
2.19842e-05
2.19843e-05
2.19842e-05
2.19842e-05
2.46433e-05
2.46233e-05
2.19834e-05
2.1984e-05
2.19834e-05
2.1984e-05
2.19839e-05
2.19825e-05
2.19839e-05
2.46438e-05
2.46238e-05
2.19832e-05
2.19833e-05
2.19831e-05
2.46261e-05
2.46444e-05
2.46244e-05
2.19843e-05
2.19843e-05
2.19842e-05
2.19843e-05
2.46434e-05
2.46233e-05
2.19835e-05
2.19841e-05
2.19834e-05
2.1984e-05
2.1984e-05
2.19825e-05
2.19839e-05
2.46438e-05
2.46238e-05
2.19832e-05
2.19833e-05
2.19831e-05
2.46264e-05
2.46444e-05
2.46245e-05
2.19843e-05
2.19844e-05
2.19843e-05
2.19843e-05
2.46433e-05
2.46234e-05
2.19835e-05
2.19841e-05
2.19834e-05
2.19841e-05
2.1984e-05
2.19825e-05
2.19839e-05
2.46438e-05
2.46238e-05
2.19833e-05
2.19833e-05
2.19832e-05
2.46263e-05
2.46445e-05
2.46245e-05
2.19844e-05
2.19845e-05
2.19843e-05
2.19844e-05
2.46434e-05
2.46234e-05
2.19836e-05
2.19842e-05
2.19834e-05
2.19841e-05
2.19841e-05
2.19825e-05
2.1984e-05
2.46438e-05
2.46239e-05
2.19833e-05
2.19833e-05
2.19832e-05
2.46261e-05
2.46445e-05
2.46244e-05
2.19845e-05
2.19845e-05
2.19843e-05
2.19844e-05
2.46434e-05
2.46233e-05
2.19836e-05
2.19843e-05
2.19835e-05
2.19841e-05
2.19841e-05
2.19825e-05
2.1984e-05
2.46438e-05
2.46239e-05
2.19834e-05
2.19833e-05
2.19833e-05
2.46262e-05
2.46445e-05
2.46245e-05
2.19845e-05
2.19846e-05
2.19844e-05
2.19844e-05
2.46434e-05
2.46233e-05
2.19837e-05
2.19843e-05
2.19835e-05
2.19841e-05
2.19842e-05
2.19825e-05
2.1984e-05
2.46439e-05
2.4624e-05
2.19835e-05
2.19833e-05
2.19833e-05
2.46263e-05
2.46445e-05
2.46245e-05
2.19846e-05
2.19847e-05
2.19844e-05
2.19844e-05
2.46434e-05
2.46234e-05
2.19838e-05
2.19844e-05
2.19835e-05
2.19841e-05
2.19843e-05
2.19825e-05
2.1984e-05
2.4644e-05
2.46239e-05
2.19835e-05
2.19833e-05
2.19832e-05
2.46264e-05
2.46445e-05
2.46245e-05
2.19847e-05
2.19847e-05
2.19844e-05
2.19844e-05
2.46434e-05
2.46234e-05
2.19838e-05
2.19845e-05
2.19835e-05
2.19841e-05
2.19843e-05
2.19824e-05
2.1984e-05
2.46439e-05
2.46239e-05
2.19836e-05
2.19833e-05
2.19832e-05
2.46265e-05
2.46446e-05
2.46246e-05
2.19848e-05
2.19848e-05
2.19843e-05
2.19843e-05
2.46434e-05
2.46234e-05
2.19839e-05
2.19845e-05
2.19835e-05
2.19841e-05
2.19844e-05
2.19824e-05
2.19839e-05
2.46439e-05
2.4624e-05
2.19836e-05
2.19832e-05
2.19832e-05
2.46263e-05
2.46446e-05
2.46246e-05
2.19849e-05
2.19849e-05
2.19843e-05
2.19843e-05
2.46434e-05
2.46234e-05
2.1984e-05
2.19846e-05
2.19835e-05
2.1984e-05
2.19845e-05
2.19824e-05
2.19839e-05
2.46439e-05
2.4624e-05
2.19837e-05
2.19832e-05
2.19831e-05
2.46261e-05
2.46446e-05
2.46247e-05
2.1985e-05
2.1985e-05
2.19842e-05
2.19842e-05
2.46435e-05
2.46234e-05
2.19842e-05
2.19847e-05
2.19834e-05
2.1984e-05
2.19846e-05
2.19823e-05
2.19839e-05
2.46439e-05
2.46241e-05
2.19838e-05
2.19832e-05
2.19831e-05
2.46263e-05
2.46447e-05
2.46247e-05
2.19851e-05
2.19851e-05
2.19842e-05
2.19842e-05
2.46435e-05
2.46236e-05
2.19844e-05
2.19849e-05
2.19834e-05
2.1984e-05
2.19848e-05
2.19823e-05
2.19838e-05
2.4644e-05
2.46241e-05
2.19839e-05
2.19831e-05
2.1983e-05
2.46267e-05
2.46448e-05
2.46249e-05
2.19854e-05
2.19854e-05
2.19842e-05
2.19843e-05
2.46436e-05
2.46238e-05
2.19846e-05
2.19852e-05
2.19835e-05
2.1984e-05
2.1985e-05
2.19824e-05
2.19839e-05
2.46441e-05
2.46244e-05
2.19842e-05
2.19832e-05
2.19831e-05
2.46269e-05
2.46449e-05
2.46253e-05
2.19858e-05
2.19859e-05
2.19844e-05
2.19844e-05
2.46438e-05
2.46242e-05
2.1985e-05
2.19856e-05
2.19836e-05
2.19842e-05
2.19855e-05
2.19825e-05
2.1984e-05
2.46443e-05
2.46249e-05
2.19846e-05
2.19833e-05
2.19832e-05
2.4627e-05
2.46449e-05
2.46241e-05
2.19864e-05
2.19864e-05
2.1981e-05
2.1981e-05
2.46439e-05
2.4623e-05
2.19856e-05
2.19862e-05
2.19802e-05
2.19807e-05
2.1986e-05
2.19792e-05
2.19806e-05
2.46444e-05
2.46236e-05
2.19852e-05
2.19798e-05
2.19797e-05
2.46257e-05
2.4642e-05
2.44399e-05
2.19841e-05
2.19841e-05
2.17884e-05
2.17884e-05
2.4641e-05
2.44392e-05
2.19833e-05
2.19839e-05
2.17882e-05
2.17876e-05
2.19837e-05
2.17875e-05
2.17878e-05
2.46414e-05
2.44392e-05
2.19828e-05
2.17876e-05
2.17875e-05
2.44394e-05
2.4211e-05
2.15506e-05
2.15505e-05
2.42105e-05
2.15505e-05
2.15498e-05
1.83586e-05
1.83584e-05
1.83583e-05
2.15499e-05
2.42103e-05
2.15498e-05
1.50774e-05
4.21671e-06
1.11284e-05
1.11199e-05
7.32303e-08
9.07906e-07
1.38844e-06
7.5168e-06
7.4916e-08
7.49823e-07
7.51201e-06
6.1693e-07
4.35477e-07
3.53351e-07
2.71131e-07
2.54044e-07
5.12214e-06
2.18756e-07
6.64634e-06
1.39974e-05
2.1561e-05
2.52832e-07
5.6418e-06
2.16052e-07
7.34335e-06
7.40387e-06
7.37588e-06
7.39812e-06
7.48154e-06
7.45645e-06
7.43434e-06
7.45655e-06
7.41842e-08
1.64149e-06
3.78327e-06
1.39533e-06
7.44611e-08
1.6515e-06
3.7836e-06
1.45467e-05
2.21986e-05
7.60282e-08
3.82159e-06
8.46298e-07
1.02321e-06
7.57342e-08
3.82e-06
8.12556e-07
1.79062e-06
1.91769e-06
4.07901e-07
1.81232e-06
1.88897e-06
4.55165e-07
1.02314e-05
3.44776e-07
1.25418e-05
3.67323e-05
4.66838e-05
4.57134e-07
1.13232e-05
3.43034e-07
1.37652e-05
7.52319e-06
7.50362e-06