/*--------------------------------*- C++ -*----------------------------------*\
| =========                 |                                                 |
| \\      /  F ield         | OpenFOAM: The Open Source CFD Toolbox           |
|  \\    /   O peration     | Version:  v1906                                 |
|   \\  /    A nd           | Web:      www.OpenFOAM.com                      |
|    \\/     M anipulation  |                                                 |
\*---------------------------------------------------------------------------*/
FoamFile
{
    version     2.0;
    format      ascii;
    class       volScalarField;
    location    "87.5";
    object      nut;
}
// * * * * * * * * * * * * * * * * * * * * * * * * * * * * * * * * * * * * * //

dimensions      [0 2 -1 0 0 0 0];


internalField   nonuniform List<scalar> 
171728
(
5.30808e-05
6.85249e-06
7.11951e-06
2.25842e-06
5.40764e-05
8.02492e-06
7.98078e-06
2.25708e-06
5.60725e-05
9.78278e-06
9.38782e-06
2.51092e-06
5.79369e-05
1.22618e-05
1.09314e-05
2.86154e-06
5.971e-05
1.38977e-05
1.26666e-05
3.25563e-06
6.14089e-05
1.52685e-05
1.46333e-05
3.83051e-06
6.32121e-05
1.72697e-05
1.69241e-05
4.66313e-06
6.50587e-05
1.98514e-05
1.96647e-05
5.85918e-06
6.69102e-05
2.29345e-05
2.28875e-05
7.99355e-06
6.88035e-05
2.65626e-05
2.64731e-05
1.09917e-05
7.06405e-05
3.07406e-05
3.05582e-05
1.41626e-05
7.25247e-05
3.48532e-05
3.50773e-05
1.76449e-05
7.49293e-05
4.0093e-05
4.02928e-05
2.22753e-05
7.76998e-05
4.55788e-05
4.5766e-05
2.77937e-05
8.12377e-05
5.19535e-05
5.20124e-05
3.51164e-05
8.54649e-05
5.85834e-05
5.86967e-05
4.345e-05
9.03864e-05
6.60533e-05
6.60659e-05
5.21638e-05
9.60038e-05
7.39868e-05
7.40216e-05
6.0954e-05
0.000102772
8.3014e-05
8.30481e-05
7.22563e-05
0.000108774
9.19993e-05
9.20101e-05
8.36154e-05
0.000115053
0.000101848
0.000101848
9.41673e-05
0.000119912
0.000108533
0.00010853
0.000100594
0.000122032
0.000110981
0.000110979
0.000102531
0.000122595
0.000111536
0.000111533
0.000102902
0.000122702
0.000111636
0.000111633
0.000102981
0.000122719
0.00011165
0.000111648
0.000102991
0.000122721
0.000111651
0.000111648
0.000102987
0.000122722
0.000111651
0.000111649
0.000102989
0.000122723
0.000111652
0.00011165
0.00010299
0.000122724
0.000111654
0.000111651
0.000102991
0.000122725
0.000111656
0.000111654
0.000102992
0.000122726
0.000111657
0.000111655
0.000102991
0.000122726
0.000111658
0.000111655
0.000102991
0.000122727
0.000111658
0.000111655
0.000102992
0.000122729
0.000111658
0.000111655
0.000102991
0.000122729
0.000111658
0.000111655
0.000102991
0.00012273
0.000111658
0.000111655
0.000102992
0.00012273
0.000111657
0.000111655
0.000102993
0.000122729
0.000111658
0.000111655
0.000102994
0.000122729
0.000111658
0.000111655
0.000102994
0.000122729
0.000111658
0.000111655
0.000102994
0.000122729
0.000111658
0.000111655
0.000102994
0.000122729
0.000111658
0.000111654
0.000102995
0.000122728
0.000111659
0.000111654
0.000102995
0.000122728
0.000111659
0.000111654
0.000102995
0.000122728
0.000111659
0.000111654
0.000102995
0.000122728
0.000111659
0.000111654
0.000102995
0.000122728
0.000111659
0.000111654
0.000102995
0.000122728
0.000111659
0.000111654
0.000102995
0.000122728
0.000111659
0.000111654
0.000102995
0.000122729
0.000111659
0.000111654
0.000102995
0.000122729
0.000111659
0.000111654
0.000102995
0.000122729
0.000111659
0.000111654
0.000102995
0.00012273
0.000111659
0.000111655
0.000102995
0.00012273
0.000111659
0.000111655
0.000102994
0.000122729
0.000111659
0.000111655
0.000102994
0.000122729
0.000111659
0.000111654
0.000102995
0.000122729
0.000111659
0.000111654
0.000102995
0.000122729
0.000111659
0.000111654
0.000102995
0.000122729
0.000111659
0.000111654
0.000102995
0.000122728
0.000111659
0.000111654
0.000102994
0.000122728
0.000111659
0.000111654
0.000102995
0.000122728
0.000111659
0.000111655
0.000102994
0.000122728
0.000111659
0.000111655
0.000102994
0.000122728
0.000111659
0.000111655
0.000102994
0.000122728
0.000111659
0.000111654
0.000102994
0.000122729
0.000111659
0.000111654
0.000102995
0.000122729
0.000111659
0.000111654
0.000102995
0.000122729
0.000111659
0.000111654
0.000102995
0.000122728
0.000111659
0.000111654
0.000102995
0.000122728
0.000111659
0.000111654
0.000102995
0.000122728
0.000111659
0.000111654
0.000102995
0.000122728
0.000111659
0.000111654
0.000102994
0.000122728
0.000111659
0.000111654
0.000102994
0.000122728
0.000111659
0.000111654
0.000102995
0.000122728
0.000111659
0.000111654
0.000102994
0.000122728
0.00011166
0.000111654
0.000102995
0.000122729
0.000111659
0.000111654
0.000102995
0.000122728
0.000111659
0.000111654
0.000102994
0.000122728
0.000111659
0.000111654
0.000102994
0.000122728
0.00011166
0.000111654
0.000102995
0.000122728
0.00011166
0.000111655
0.000102995
0.000122728
0.00011166
0.000111655
0.000102995
0.000122729
0.00011166
0.000111655
0.000102995
0.000122729
0.00011166
0.000111655
0.000102995
0.000122729
0.000111661
0.000111656
0.000102996
0.000122729
0.000111661
0.000111656
0.000102996
0.00012273
0.000111662
0.000111657
0.000102996
0.00012273
0.000111663
0.000111658
0.000102996
0.00012273
0.000111666
0.000111661
0.000102997
0.00012273
0.00011167
0.000111665
0.000103
0.000122731
0.000111678
0.000111673
0.000103004
0.000122732
0.000111692
0.000111687
0.000103009
0.00012273
0.000111685
0.00011168
0.000103019
0.000123181
0.000112406
0.000112402
0.000103974
2.24703e-06
4.76258e-06
4.9069e-06
2.05975e-06
4.36385e-06
5.17251e-06
5.37351e-05
5.37393e-05
5.36569e-05
5.36117e-05
4.77837e-06
5.07071e-06
2.07553e-06
4.90784e-06
4.86524e-06
2.28945e-06
2.24124e-06
2.30693e-06
6.86503e-06
6.9691e-06
7.4902e-06
7.57152e-06
2.07053e-06
2.25851e-06
6.62543e-06
7.53202e-06
7.11796e-06
8.17172e-06
7.1505e-06
7.62535e-06
7.75448e-06
2.03652e-06
2.02515e-06
6.99032e-06
7.69199e-06
7.56139e-06
2.26815e-06
2.29073e-06
2.46538e-06
7.79339e-06
7.88521e-06
9.0121e-06
8.85211e-06
2.24881e-06
2.59796e-06
7.38573e-06
8.51148e-06
8.28413e-06
9.59427e-06
8.06613e-06
9.30133e-06
9.06202e-06
2.00714e-06
2.2454e-06
7.86625e-06
9.01286e-06
8.85225e-06
2.5202e-06
2.45106e-06
2.86272e-06
9.43804e-06
9.18099e-06
1.07086e-05
1.02568e-05
2.58921e-06
3.02269e-06
8.64216e-06
9.97789e-06
9.84729e-06
1.11978e-05
9.42446e-06
1.15845e-05
1.05471e-05
2.23133e-06
2.63917e-06
9.21132e-06
1.05279e-05
1.0342e-05
2.8761e-06
2.85534e-06
3.51754e-06
1.11403e-05
1.06282e-05
1.25551e-05
1.18618e-05
3.01153e-06
3.42245e-06
1.03002e-05
1.16142e-05
1.18347e-05
1.2865e-05
1.09215e-05
1.37033e-05
1.21464e-05
2.62528e-06
3.17433e-06
1.0736e-05
1.2232e-05
1.20103e-05
3.27323e-06
3.52232e-06
4.44903e-06
1.30687e-05
1.22873e-05
1.4681e-05
1.37613e-05
3.39333e-06
3.91651e-06
1.24064e-05
1.32763e-05
1.44074e-05
1.47206e-05
1.25676e-05
1.45845e-05
1.38983e-05
3.16416e-06
3.90659e-06
1.2454e-05
1.41038e-05
1.38602e-05
3.84005e-06
4.45271e-06
5.36917e-06
1.52332e-05
1.43252e-05
1.69945e-05
1.62301e-05
3.90877e-06
4.83445e-06
1.50664e-05
1.52431e-05
1.60769e-05
1.68395e-05
1.43794e-05
1.67058e-05
1.59732e-05
3.90274e-06
4.87261e-06
1.43766e-05
1.62941e-05
1.60771e-05
4.66604e-06
5.36876e-06
6.82023e-06
1.76528e-05
1.69644e-05
1.96901e-05
1.93683e-05
4.84223e-06
6.28508e-06
1.65372e-05
1.74027e-05
1.87351e-05
1.90233e-05
1.6598e-05
1.91576e-05
1.84987e-05
4.8767e-06
6.17555e-06
1.66996e-05
1.89265e-05
1.86703e-05
5.82414e-06
6.85962e-06
8.82549e-06
2.04526e-05
2.02135e-05
2.28521e-05
2.25762e-05
6.33603e-06
8.41983e-06
1.93304e-05
1.96327e-05
2.14726e-05
2.17744e-05
1.92005e-05
2.21078e-05
2.15497e-05
6.21622e-06
8.22671e-06
1.93828e-05
2.20517e-05
2.17004e-05
7.87929e-06
8.91427e-06
1.1463e-05
2.36665e-05
2.33029e-05
2.63016e-05
2.54511e-05
8.52133e-06
1.11666e-05
2.23011e-05
2.25689e-05
2.50503e-05
2.52625e-05
2.24076e-05
2.55991e-05
2.51907e-05
8.32912e-06
1.10835e-05
2.2562e-05
2.55541e-05
2.53799e-05
1.08506e-05
1.1581e-05
1.45563e-05
2.72106e-05
2.62395e-05
2.99638e-05
2.90792e-05
1.12826e-05
1.42348e-05
2.60237e-05
2.62485e-05
2.90414e-05
2.93401e-05
2.61603e-05
2.9703e-05
2.91794e-05
1.12204e-05
1.42611e-05
2.63624e-05
2.94497e-05
2.93657e-05
1.40334e-05
1.4692e-05
1.79386e-05
3.09473e-05
3.01804e-05
3.39773e-05
3.35073e-05
1.43596e-05
1.77113e-05
3.01243e-05
3.04388e-05
3.33691e-05
3.3664e-05
3.02538e-05
3.37568e-05
3.34953e-05
1.43944e-05
1.77565e-05
3.04185e-05
3.39142e-05
3.36302e-05
1.74679e-05
1.81022e-05
2.23651e-05
3.50406e-05
3.46593e-05
3.88316e-05
3.85212e-05
1.78953e-05
2.22504e-05
3.44999e-05
3.47814e-05
3.84178e-05
3.86354e-05
3.46169e-05
3.8791e-05
3.83836e-05
1.79376e-05
2.23437e-05
3.47722e-05
3.90112e-05
3.85755e-05
2.2036e-05
2.26396e-05
2.82414e-05
4.01538e-05
3.9851e-05
4.41622e-05
4.39759e-05
2.25236e-05
2.80227e-05
3.97553e-05
3.99465e-05
4.388e-05
4.40382e-05
3.96101e-05
4.40576e-05
4.36601e-05
2.26294e-05
2.81838e-05
3.98162e-05
4.4271e-05
4.37658e-05
2.7882e-05
2.81436e-05
3.48421e-05
4.564e-05
4.54721e-05
5.03036e-05
5.01275e-05
2.7958e-05
3.46674e-05
4.54157e-05
4.5568e-05
5.01829e-05
5.02868e-05
4.53145e-05
5.04008e-05
5.04095e-05
2.81042e-05
3.47977e-05
4.53534e-05
5.04631e-05
5.04058e-05
3.47548e-05
3.51932e-05
4.2251e-05
5.18681e-05
5.16909e-05
5.6833e-05
5.66645e-05
3.50558e-05
4.21609e-05
5.17492e-05
5.18212e-05
5.67021e-05
5.66824e-05
5.19977e-05
5.6772e-05
5.68503e-05
3.51774e-05
4.22094e-05
5.20167e-05
5.68887e-05
5.69022e-05
4.23323e-05
4.33698e-05
5.08279e-05
5.8675e-05
5.85243e-05
6.43362e-05
6.42183e-05
4.32941e-05
5.07888e-05
5.85578e-05
5.85222e-05
6.42523e-05
6.4212e-05
5.86613e-05
6.42453e-05
6.42599e-05
4.33394e-05
5.08072e-05
5.87098e-05
6.42758e-05
6.43012e-05
5.08448e-05
5.21728e-05
5.95302e-05
6.61404e-05
6.60224e-05
7.18492e-05
7.17502e-05
5.21269e-05
5.9474e-05
6.60612e-05
6.60261e-05
7.17902e-05
7.17886e-05
6.60494e-05
7.17908e-05
7.17569e-05
5.21407e-05
5.95372e-05
6.60903e-05
7.18156e-05
7.17922e-05
5.94732e-05
6.1008e-05
7.03867e-05
7.40366e-05
7.39512e-05
8.08656e-05
8.08252e-05
6.09579e-05
7.03713e-05
7.39874e-05
7.39964e-05
8.08471e-05
8.08654e-05
7.39553e-05
8.08507e-05
8.08244e-05
6.10302e-05
7.04305e-05
7.3986e-05
8.089e-05
8.08424e-05
7.03636e-05
7.22759e-05
8.18295e-05
8.30236e-05
8.2994e-05
8.95731e-05
8.95632e-05
7.2265e-05
8.18296e-05
8.30128e-05
8.30277e-05
8.95776e-05
8.95771e-05
8.2993e-05
8.9582e-05
8.9564e-05
7.23156e-05
8.18428e-05
8.30081e-05
8.95977e-05
8.95754e-05
8.18226e-05
8.36216e-05
9.26646e-05
9.19897e-05
9.19829e-05
9.95231e-05
9.95193e-05
8.36228e-05
9.26673e-05
9.19961e-05
9.1992e-05
9.95301e-05
9.95192e-05
9.19844e-05
9.95377e-05
9.95245e-05
8.36314e-05
9.26661e-05
9.19951e-05
9.95392e-05
9.95334e-05
9.26624e-05
9.41696e-05
9.98672e-05
0.000101834
0.00010183
0.000107285
0.000107281
9.41722e-05
9.98692e-05
0.000101841
0.000101829
0.000107292
0.000107277
0.000101836
0.0001073
0.000107287
9.41702e-05
9.98633e-05
0.000101845
0.000107297
0.000107297
9.98643e-05
0.000100598
0.000102441
0.000108519
0.000108515
0.000110629
0.000110623
0.0001006
0.000102442
0.000108526
0.000108511
0.000110636
0.000110619
0.000108522
0.000110643
0.000110632
0.000100593
0.000102437
0.000108531
0.00011064
0.000110642
0.000102441
0.000102531
0.000102928
0.000110968
0.000110962
0.000111458
0.00011145
0.000102533
0.000102929
0.000110975
0.000110957
0.000111464
0.000111446
0.000110971
0.00011147
0.00011146
0.000102528
0.000102923
0.000110981
0.000111468
0.00011147
0.000102927
0.000102903
0.000103029
0.000111524
0.000111516
0.000111613
0.000111604
0.000102904
0.00010303
0.00011153
0.000111512
0.000111619
0.0001116
0.000111526
0.000111624
0.000111613
0.000102899
0.000103024
0.000111535
0.000111622
0.000111623
0.000103027
0.000102983
0.000103053
0.000111625
0.000111616
0.000111638
0.00011163
0.000102983
0.000103053
0.000111631
0.000111612
0.000111645
0.000111626
0.000111625
0.00011165
0.000111638
0.000102977
0.000103047
0.000111634
0.000111647
0.000111646
0.000103049
0.000102994
0.000103046
0.000111639
0.00011163
0.000111639
0.000111631
0.000102995
0.000103047
0.000111646
0.000111626
0.000111646
0.000111627
0.000111638
0.00011165
0.000111638
0.000102989
0.000103041
0.000111647
0.000111648
0.000111646
0.000103042
0.000102991
0.00010305
0.00011164
0.000111631
0.00011164
0.000111631
0.000102992
0.00010305
0.000111646
0.000111627
0.000111647
0.000111627
0.000111638
0.000111651
0.000111639
0.000102986
0.000103044
0.000111646
0.000111649
0.000111647
0.000103046
0.000102994
0.000103049
0.000111641
0.000111631
0.000111642
0.000111632
0.000102994
0.00010305
0.000111647
0.000111627
0.000111648
0.000111628
0.000111639
0.000111652
0.00011164
0.000102988
0.000103044
0.000111647
0.000111649
0.000111647
0.000103045
0.000102994
0.000103051
0.000111642
0.000111632
0.000111644
0.000111633
0.000102994
0.000103051
0.000111648
0.000111628
0.00011165
0.00011163
0.00011164
0.000111653
0.000111642
0.000102988
0.000103045
0.000111647
0.000111651
0.000111649
0.000103047
0.000102996
0.000103052
0.000111644
0.000111634
0.000111646
0.000111636
0.000102996
0.000103053
0.00011165
0.00011163
0.000111652
0.000111633
0.000111642
0.000111655
0.000111644
0.00010299
0.000103046
0.000111649
0.000111653
0.000111651
0.000103047
0.000102996
0.000103052
0.000111646
0.000111637
0.000111646
0.000111637
0.000102997
0.000103053
0.000111653
0.000111633
0.000111654
0.000111634
0.000111644
0.000111657
0.000111644
0.000102991
0.000103047
0.000111651
0.000111655
0.000111651
0.000103047
0.000102996
0.000103052
0.000111646
0.000111637
0.000111646
0.000111637
0.000102997
0.000103053
0.000111654
0.000111634
0.000111654
0.000111634
0.000111644
0.000111658
0.000111644
0.000102991
0.000103046
0.000111652
0.000111655
0.000111651
0.000103047
0.000102996
0.000103052
0.000111646
0.000111637
0.000111646
0.000111637
0.000102997
0.000103053
0.000111654
0.000111634
0.000111654
0.000111634
0.000111645
0.000111658
0.000111644
0.000102991
0.000103047
0.000111652
0.000111655
0.000111651
0.000103047
0.000102996
0.000103053
0.000111646
0.000111637
0.000111646
0.000111636
0.000102997
0.000103054
0.000111654
0.000111634
0.000111654
0.000111634
0.000111645
0.000111658
0.000111644
0.000102991
0.000103048
0.000111652
0.000111655
0.000111651
0.000103047
0.000102997
0.000103053
0.000111646
0.000111636
0.000111646
0.000111636
0.000102998
0.000103054
0.000111654
0.000111634
0.000111654
0.000111634
0.000111645
0.000111658
0.000111644
0.000102992
0.000103047
0.000111651
0.000111655
0.000111651
0.000103048
0.000102997
0.000103052
0.000111647
0.000111636
0.000111646
0.000111636
0.000102998
0.000103053
0.000111654
0.000111634
0.000111654
0.000111634
0.000111645
0.000111658
0.000111645
0.000102992
0.000103046
0.000111651
0.000111655
0.000111651
0.000103049
0.000102997
0.000103052
0.000111647
0.000111636
0.000111646
0.000111636
0.000102997
0.000103053
0.000111655
0.000111634
0.000111654
0.000111634
0.000111645
0.000111657
0.000111644
0.000102991
0.000103046
0.000111651
0.000111655
0.000111651
0.00010305
0.000102996
0.000103052
0.000111647
0.000111637
0.000111646
0.000111636
0.000102997
0.000103053
0.000111655
0.000111634
0.000111654
0.000111634
0.000111645
0.000111658
0.000111645
0.000102991
0.000103047
0.000111651
0.000111655
0.000111651
0.000103049
0.000102996
0.000103052
0.000111646
0.000111637
0.000111646
0.000111636
0.000102997
0.000103054
0.000111654
0.000111634
0.000111654
0.000111634
0.000111645
0.000111658
0.000111645
0.000102991
0.000103047
0.000111652
0.000111655
0.000111651
0.00010305
0.000102996
0.000103052
0.000111646
0.000111636
0.000111646
0.000111636
0.000102998
0.000103053
0.000111654
0.000111634
0.000111654
0.000111634
0.000111645
0.000111658
0.000111645
0.000102992
0.000103047
0.000111651
0.000111655
0.000111651
0.00010305
0.000102997
0.000103052
0.000111646
0.000111637
0.000111646
0.000111637
0.000102998
0.000103053
0.000111654
0.000111634
0.000111654
0.000111634
0.000111645
0.000111658
0.000111644
0.000102992
0.000103047
0.000111651
0.000111655
0.000111651
0.00010305
0.000102997
0.000103052
0.000111646
0.000111637
0.000111646
0.000111637
0.000102998
0.000103053
0.000111655
0.000111634
0.000111654
0.000111634
0.000111645
0.000111658
0.000111644
0.000102991
0.000103046
0.000111651
0.000111654
0.000111651
0.00010305
0.000102996
0.000103051
0.000111646
0.000111638
0.000111646
0.000111638
0.000102998
0.000103053
0.000111654
0.000111634
0.000111654
0.000111634
0.000111644
0.000111659
0.000111644
0.000102991
0.000103047
0.000111651
0.000111654
0.000111651
0.000103051
0.000102996
0.000103052
0.000111646
0.000111638
0.000111646
0.000111638
0.000102998
0.000103053
0.000111654
0.000111634
0.000111654
0.000111634
0.000111645
0.000111659
0.000111645
0.000102991
0.000103046
0.000111652
0.000111654
0.000111651
0.000103051
0.000102996
0.000103052
0.000111647
0.000111638
0.000111646
0.000111638
0.000102997
0.000103053
0.000111654
0.000111634
0.000111654
0.000111634
0.000111645
0.000111659
0.000111645
0.000102991
0.000103046
0.000111652
0.000111654
0.000111651
0.000103051
0.000102996
0.000103051
0.000111647
0.000111638
0.000111647
0.000111638
0.000102997
0.000103053
0.000111654
0.000111634
0.000111653
0.000111634
0.000111645
0.000111659
0.000111645
0.000102991
0.000103046
0.000111652
0.000111654
0.000111651
0.000103051
0.000102996
0.000103052
0.000111647
0.000111638
0.000111647
0.000111638
0.000102997
0.000103053
0.000111654
0.000111634
0.000111653
0.000111634
0.000111645
0.000111659
0.000111645
0.000102991
0.000103046
0.000111651
0.000111654
0.000111651
0.000103051
0.000102996
0.000103052
0.000111647
0.000111638
0.000111647
0.000111638
0.000102997
0.000103053
0.000111653
0.000111634
0.000111653
0.000111634
0.000111645
0.000111659
0.000111644
0.000102991
0.000103046
0.000111651
0.000111654
0.000111651
0.000103051
0.000102996
0.000103052
0.000111647
0.000111638
0.000111647
0.000111638
0.000102997
0.000103053
0.000111653
0.000111634
0.000111653
0.000111634
0.000111644
0.000111659
0.000111644
0.000102991
0.000103046
0.000111651
0.000111654
0.000111651
0.000103051
0.000102997
0.000103052
0.000111647
0.000111638
0.000111647
0.000111638
0.000102998
0.000103053
0.000111653
0.000111634
0.000111653
0.000111634
0.000111644
0.000111659
0.000111644
0.000102991
0.000103046
0.000111651
0.000111654
0.000111651
0.000103051
0.000102997
0.000103052
0.000111647
0.000111638
0.000111647
0.000111638
0.000102998
0.000103053
0.000111654
0.000111634
0.000111654
0.000111634
0.000111644
0.000111659
0.000111644
0.000102991
0.000103046
0.000111651
0.000111654
0.000111651
0.000103051
0.000102997
0.000103052
0.000111648
0.000111638
0.000111647
0.000111638
0.000102997
0.000103053
0.000111654
0.000111634
0.000111654
0.000111634
0.000111644
0.000111659
0.000111644
0.000102991
0.000103046
0.000111651
0.000111654
0.000111651
0.000103051
0.000102997
0.000103052
0.000111648
0.000111638
0.000111648
0.000111638
0.000102998
0.000103053
0.000111654
0.000111634
0.000111654
0.000111634
0.000111645
0.000111659
0.000111644
0.000102991
0.000103046
0.000111651
0.000111655
0.000111651
0.00010305
0.000102997
0.000103052
0.000111648
0.000111638
0.000111648
0.000111638
0.000102998
0.000103053
0.000111654
0.000111634
0.000111654
0.000111634
0.000111644
0.000111659
0.000111644
0.000102991
0.000103046
0.000111651
0.000111655
0.000111651
0.00010305
0.000102997
0.000103052
0.000111648
0.000111638
0.000111648
0.000111638
0.000102998
0.000103053
0.000111654
0.000111634
0.000111653
0.000111633
0.000111645
0.000111659
0.000111644
0.000102991
0.000103047
0.000111651
0.000111655
0.000111651
0.00010305
0.000102997
0.000103052
0.000111648
0.000111638
0.000111648
0.000111638
0.000102998
0.000103053
0.000111654
0.000111634
0.000111653
0.000111633
0.000111645
0.000111659
0.000111645
0.000102991
0.000103046
0.000111651
0.000111654
0.000111651
0.000103051
0.000102997
0.000103052
0.000111648
0.000111638
0.000111648
0.000111638
0.000102998
0.000103053
0.000111653
0.000111633
0.000111653
0.000111633
0.000111645
0.000111659
0.000111645
0.000102991
0.000103046
0.000111651
0.000111654
0.000111651
0.000103051
0.000102997
0.000103052
0.000111648
0.000111638
0.000111648
0.000111638
0.000102998
0.000103053
0.000111653
0.000111633
0.000111653
0.000111633
0.000111645
0.000111659
0.000111645
0.000102991
0.000103046
0.000111651
0.000111654
0.000111651
0.000103051
0.000102997
0.000103052
0.000111648
0.000111638
0.000111648
0.000111638
0.000102998
0.000103053
0.000111653
0.000111634
0.000111653
0.000111633
0.000111645
0.000111659
0.000111644
0.000102991
0.000103046
0.000111651
0.000111654
0.000111651
0.00010305
0.000102997
0.000103052
0.000111648
0.000111638
0.000111648
0.000111638
0.000102998
0.000103053
0.000111653
0.000111634
0.000111653
0.000111634
0.000111644
0.000111659
0.000111644
0.000102991
0.000103046
0.000111651
0.000111654
0.000111651
0.00010305
0.000102997
0.000103052
0.000111648
0.000111638
0.000111647
0.000111638
0.000102998
0.000103053
0.000111653
0.000111634
0.000111653
0.000111634
0.000111644
0.000111659
0.000111644
0.000102991
0.000103046
0.000111651
0.000111654
0.00011165
0.000103051
0.000102996
0.000103052
0.000111648
0.000111638
0.000111647
0.000111638
0.000102998
0.000103053
0.000111653
0.000111634
0.000111653
0.000111634
0.000111644
0.000111659
0.000111644
0.000102991
0.000103046
0.00011165
0.000111655
0.00011165
0.00010305
0.000102996
0.000103052
0.000111647
0.000111638
0.000111647
0.000111638
0.000102998
0.000103053
0.000111653
0.000111634
0.000111653
0.000111633
0.000111644
0.000111659
0.000111644
0.000102991
0.000103047
0.00011165
0.000111655
0.000111651
0.00010305
0.000102996
0.000103052
0.000111647
0.000111638
0.000111647
0.000111638
0.000102998
0.000103053
0.000111653
0.000111633
0.000111653
0.000111633
0.000111644
0.000111659
0.000111644
0.000102991
0.000103047
0.000111651
0.000111655
0.000111651
0.00010305
0.000102996
0.000103052
0.000111647
0.000111638
0.000111647
0.000111638
0.000102998
0.000103053
0.000111653
0.000111634
0.000111653
0.000111633
0.000111644
0.000111659
0.000111644
0.000102991
0.000103046
0.000111651
0.000111655
0.000111651
0.00010305
0.000102996
0.000103052
0.000111648
0.000111638
0.000111648
0.000111638
0.000102998
0.000103053
0.000111653
0.000111633
0.000111653
0.000111633
0.000111644
0.000111659
0.000111644
0.000102991
0.000103046
0.000111651
0.000111654
0.00011165
0.000103051
0.000102997
0.000103052
0.000111648
0.000111638
0.000111648
0.000111638
0.000102998
0.000103053
0.000111653
0.000111634
0.000111653
0.000111633
0.000111644
0.000111659
0.000111644
0.000102991
0.000103046
0.000111651
0.000111654
0.000111651
0.000103051
0.000102997
0.000103052
0.000111648
0.000111638
0.000111648
0.000111638
0.000102998
0.000103053
0.000111653
0.000111634
0.000111653
0.000111633
0.000111645
0.000111659
0.000111644
0.000102991
0.000103046
0.000111651
0.000111654
0.000111651
0.00010305
0.000102997
0.000103052
0.000111648
0.000111638
0.000111648
0.000111638
0.000102997
0.000103053
0.000111653
0.000111634
0.000111653
0.000111634
0.000111645
0.000111659
0.000111644
0.000102991
0.000103046
0.000111651
0.000111654
0.000111651
0.00010305
0.000102996
0.000103052
0.000111648
0.000111638
0.000111647
0.000111638
0.000102997
0.000103053
0.000111653
0.000111634
0.000111653
0.000111633
0.000111644
0.000111659
0.000111644
0.000102991
0.000103046
0.000111651
0.000111654
0.00011165
0.000103051
0.000102996
0.000103052
0.000111648
0.000111638
0.000111648
0.000111638
0.000102998
0.000103053
0.000111653
0.000111634
0.000111653
0.000111633
0.000111644
0.000111659
0.000111644
0.000102991
0.000103046
0.000111651
0.000111654
0.00011165
0.00010305
0.000102996
0.000103052
0.000111648
0.000111638
0.000111648
0.000111638
0.000102998
0.000103053
0.000111653
0.000111633
0.000111653
0.000111633
0.000111645
0.000111659
0.000111644
0.000102991
0.000103046
0.000111651
0.000111654
0.000111651
0.00010305
0.000102996
0.000103052
0.000111648
0.000111638
0.000111648
0.000111638
0.000102998
0.000103053
0.000111653
0.000111634
0.000111653
0.000111633
0.000111645
0.000111659
0.000111644
0.000102991
0.000103046
0.000111651
0.000111654
0.000111651
0.000103051
0.000102996
0.000103052
0.000111648
0.000111638
0.000111648
0.000111638
0.000102998
0.000103053
0.000111653
0.000111634
0.000111653
0.000111634
0.000111644
0.000111659
0.000111644
0.000102991
0.000103046
0.000111651
0.000111654
0.00011165
0.000103051
0.000102996
0.000103052
0.000111648
0.000111638
0.000111648
0.000111638
0.000102998
0.000103053
0.000111653
0.000111634
0.000111653
0.000111634
0.000111644
0.000111659
0.000111644
0.000102991
0.000103046
0.00011165
0.000111654
0.00011165
0.00010305
0.000102997
0.000103052
0.000111648
0.000111638
0.000111648
0.000111638
0.000102998
0.000103053
0.000111653
0.000111633
0.000111653
0.000111633
0.000111644
0.000111659
0.000111644
0.000102991
0.000103046
0.00011165
0.000111654
0.000111651
0.000103051
0.000102997
0.000103052
0.000111648
0.000111638
0.000111648
0.000111638
0.000102998
0.000103053
0.000111653
0.000111633
0.000111653
0.000111634
0.000111644
0.000111659
0.000111645
0.000102991
0.000103046
0.000111651
0.000111654
0.000111651
0.000103051
0.000102997
0.000103052
0.000111648
0.000111638
0.000111648
0.000111638
0.000102998
0.000103053
0.000111653
0.000111634
0.000111653
0.000111634
0.000111645
0.000111659
0.000111645
0.000102991
0.000103046
0.000111651
0.000111654
0.000111651
0.00010305
0.000102997
0.000103052
0.000111648
0.000111638
0.000111648
0.000111638
0.000102998
0.000103053
0.000111653
0.000111634
0.000111654
0.000111634
0.000111645
0.000111659
0.000111645
0.000102991
0.000103046
0.000111651
0.000111654
0.000111651
0.00010305
0.000102997
0.000103052
0.000111648
0.000111639
0.000111648
0.000111639
0.000102998
0.000103053
0.000111654
0.000111634
0.000111654
0.000111634
0.000111645
0.00011166
0.000111645
0.000102991
0.000103046
0.000111652
0.000111654
0.000111651
0.000103051
0.000102997
0.000103052
0.000111649
0.000111639
0.000111649
0.000111639
0.000102998
0.000103053
0.000111654
0.000111635
0.000111654
0.000111635
0.000111646
0.00011166
0.000111645
0.000102991
0.000103046
0.000111652
0.000111655
0.000111652
0.000103051
0.000102997
0.000103052
0.000111649
0.00011164
0.000111649
0.000111639
0.000102998
0.000103054
0.000111655
0.000111635
0.000111654
0.000111635
0.000111646
0.00011166
0.000111646
0.000102991
0.000103047
0.000111652
0.000111655
0.000111652
0.00010305
0.000102997
0.000103052
0.000111649
0.00011164
0.000111649
0.000111639
0.000102998
0.000103054
0.000111655
0.000111635
0.000111654
0.000111635
0.000111646
0.00011166
0.000111646
0.000102991
0.000103047
0.000111653
0.000111655
0.000111652
0.000103051
0.000102997
0.000103052
0.00011165
0.00011164
0.000111649
0.00011164
0.000102998
0.000103054
0.000111655
0.000111635
0.000111654
0.000111635
0.000111647
0.00011166
0.000111646
0.000102992
0.000103047
0.000111653
0.000111655
0.000111652
0.000103051
0.000102997
0.000103053
0.00011165
0.00011164
0.000111649
0.00011164
0.000102998
0.000103054
0.000111655
0.000111636
0.000111655
0.000111635
0.000111647
0.00011166
0.000111646
0.000102992
0.000103047
0.000111653
0.000111655
0.000111652
0.000103052
0.000102997
0.000103053
0.00011165
0.000111641
0.000111649
0.00011164
0.000102998
0.000103054
0.000111656
0.000111636
0.000111655
0.000111635
0.000111647
0.00011166
0.000111646
0.000102992
0.000103047
0.000111653
0.000111655
0.000111652
0.000103052
0.000102998
0.000103053
0.000111651
0.000111641
0.00011165
0.00011164
0.000102999
0.000103054
0.000111656
0.000111636
0.000111655
0.000111636
0.000111647
0.00011166
0.000111646
0.000102992
0.000103047
0.000111653
0.000111655
0.000111653
0.000103052
0.000102998
0.000103054
0.000111651
0.000111642
0.000111651
0.000111641
0.000102999
0.000103055
0.000111657
0.000111637
0.000111656
0.000111636
0.000111648
0.000111661
0.000111647
0.000102993
0.000103048
0.000111654
0.000111656
0.000111653
0.000103052
0.000102999
0.000103055
0.000111653
0.000111643
0.000111652
0.000111642
0.000103
0.000103056
0.000111658
0.000111639
0.000111658
0.000111638
0.000111649
0.000111663
0.000111649
0.000102993
0.000103049
0.000111655
0.000111658
0.000111655
0.000103053
0.000103
0.000103056
0.000111655
0.000111645
0.000111655
0.000111646
0.000103001
0.000103057
0.000111661
0.000111641
0.000111661
0.000111641
0.000111652
0.000111666
0.000111652
0.000102994
0.000103051
0.000111658
0.000111661
0.000111658
0.000103055
0.000103002
0.00010306
0.000111659
0.00011165
0.000111662
0.000111652
0.000103003
0.000103061
0.000111665
0.000111645
0.000111667
0.000111648
0.000111656
0.000111672
0.000111658
0.000102997
0.000103054
0.000111662
0.000111668
0.000111664
0.000103058
0.000103005
0.000103065
0.000111668
0.000111658
0.000111673
0.000111664
0.000103006
0.000103066
0.000111673
0.000111653
0.000111679
0.000111659
0.000111664
0.000111684
0.00011167
0.000103
0.00010306
0.00011167
0.000111679
0.000111677
0.000103063
0.000103011
0.000103076
0.000111681
0.000111673
0.000111701
0.000111693
0.000103012
0.000103077
0.000111687
0.000111668
0.000111708
0.000111689
0.000111679
0.000111712
0.000111698
0.000103006
0.00010307
0.000111685
0.000111708
0.000111706
0.000103075
0.00010302
0.000103498
0.000111674
0.000111666
0.000112302
0.000112294
0.000103021
0.000103498
0.00011168
0.000111661
0.000112306
0.00011229
0.00011167
0.00011231
0.000112298
0.000103015
0.000103493
0.000111678
0.000112307
0.000112305
0.000103493
0.000103978
0.000112398
0.000112391
0.000103978
0.000112402
0.000112388
0.000123178
0.000123177
0.000123177
0.000112394
0.000103973
0.0001124
0.00010677
3.18234e-05
7.78334e-05
7.77623e-05
5.35091e-07
5.11151e-06
3.10578e-06
5.35195e-05
5.33707e-07
5.22123e-06
5.3543e-05
2.07853e-06
2.35271e-06
1.11745e-06
1.60386e-06
9.90665e-07
1.37105e-05
9.67674e-07
1.52574e-05
1.09412e-05
1.31624e-05
9.51316e-07
1.43868e-05
9.05021e-07
1.60313e-05
5.30984e-05
5.3048e-05
5.2987e-05
5.35785e-05
5.35354e-05
5.35601e-05
5.34963e-05
5.43459e-07
1.81158e-06
2.73032e-05
6.95293e-06
5.46181e-07
2.14988e-06
2.73937e-05
1.11115e-05
1.33539e-05
5.40449e-07
2.83973e-05
6.93601e-07
7.17377e-06
5.41894e-07
2.83978e-05
8.27115e-07
1.37553e-06
1.52297e-06
2.24462e-06
1.60018e-06
1.73403e-06
1.21752e-06
1.89285e-05
1.10939e-06
2.09514e-05
1.71677e-05
1.93442e-05
1.20444e-06
1.99104e-05
1.0806e-06