/*--------------------------------*- C++ -*----------------------------------*\
| =========                 |                                                 |
| \\      /  F ield         | OpenFOAM: The Open Source CFD Toolbox           |
|  \\    /   O peration     | Version:  v1906                                 |
|   \\  /    A nd           | Web:      www.OpenFOAM.com                      |
|    \\/     M anipulation  |                                                 |
\*---------------------------------------------------------------------------*/
FoamFile
{
    version     2.0;
    format      ascii;
    class       volScalarField;
    location    "87.5";
    object      p;
}
// * * * * * * * * * * * * * * * * * * * * * * * * * * * * * * * * * * * * * //

dimensions      [0 2 -2 0 0 0 0];


internalField   nonuniform List<scalar> 
171728
(
0.00356526
0.00356507
0.00356512
0.00356694
0.00352778
0.00352727
0.00352725
0.0035303
0.00349154
0.00349076
0.00349071
0.00349299
0.00344599
0.00344548
0.00344528
0.00344804
0.00339815
0.00339758
0.00339748
0.00340024
0.00334988
0.0033494
0.00334937
0.00335208
0.0033019
0.0033013
0.00330144
0.00330422
0.00325482
0.00325441
0.00325442
0.00325721
0.00320875
0.00320843
0.00320844
0.0032112
0.00316368
0.00316338
0.00316344
0.0031662
0.00311953
0.0031193
0.00311934
0.00312208
0.0030762
0.00307605
0.00307604
0.00307873
0.00303352
0.00303338
0.0030334
0.00303604
0.0029916
0.00299147
0.00299147
0.00299395
0.00295069
0.00295061
0.00295058
0.00295316
0.00291107
0.00291102
0.00291102
0.00291351
0.00287289
0.00287284
0.00287286
0.00287529
0.00283387
0.00283374
0.00283375
0.0028363
0.00279382
0.00279357
0.00279357
0.00279619
0.00275353
0.00275327
0.00275327
0.0027558
0.00271427
0.00271408
0.00271408
0.00271646
0.0026763
0.0026762
0.0026762
0.00267844
0.00263919
0.00263914
0.00263914
0.00264132
0.00260243
0.00260239
0.00260239
0.00260456
0.00256575
0.0025657
0.0025657
0.00256787
0.00252906
0.00252902
0.00252902
0.00253119
0.00249238
0.00249234
0.00249234
0.00249451
0.0024557
0.00245566
0.00245566
0.00245783
0.00241902
0.00241898
0.00241898
0.00242115
0.00238234
0.0023823
0.0023823
0.00238447
0.00234566
0.00234562
0.00234562
0.00234779
0.00230898
0.00230894
0.00230894
0.00231111
0.0022723
0.00227226
0.00227226
0.00227443
0.00223562
0.00223558
0.00223558
0.00223775
0.00219894
0.00219889
0.00219889
0.00220107
0.00216226
0.00216221
0.00216221
0.00216439
0.00212558
0.00212553
0.00212553
0.00212771
0.0020889
0.00208885
0.00208885
0.00209102
0.00205221
0.00205217
0.00205217
0.00205434
0.00201553
0.00201549
0.00201549
0.00201766
0.00197885
0.00197881
0.00197881
0.00198098
0.00194217
0.00194212
0.00194212
0.0019443
0.00190549
0.00190544
0.00190544
0.00190762
0.0018688
0.00186876
0.00186876
0.00187093
0.00183212
0.00183207
0.00183207
0.00183425
0.00179543
0.00179538
0.00179538
0.00179756
0.00175874
0.0017587
0.0017587
0.00176087
0.00172206
0.00172201
0.00172201
0.00172419
0.00168537
0.00168533
0.00168533
0.0016875
0.00164869
0.00164864
0.00164864
0.00165082
0.001612
0.00161196
0.00161196
0.00161413
0.00157532
0.00157527
0.00157527
0.00157745
0.00153863
0.00153858
0.00153858
0.00154076
0.00150194
0.0015019
0.0015019
0.00150407
0.00146526
0.00146521
0.00146521
0.00146739
0.00142857
0.00142852
0.00142852
0.0014307
0.00139189
0.00139184
0.00139184
0.00139401
0.0013552
0.00135516
0.00135516
0.00135733
0.00131852
0.00131847
0.00131847
0.00132064
0.00128183
0.00128178
0.00128178
0.00128396
0.00124514
0.00124509
0.00124509
0.00124727
0.00120845
0.00120841
0.00120841
0.00121058
0.00117176
0.00117172
0.00117172
0.00117389
0.00113508
0.00113503
0.00113503
0.00113721
0.00109839
0.00109834
0.00109834
0.00110052
0.0010617
0.00106166
0.00106166
0.00106383
0.00102502
0.00102497
0.00102497
0.00102714
0.000988329
0.000988283
0.000988283
0.000990458
0.000951643
0.000951596
0.000951596
0.000953771
0.000914957
0.00091491
0.00091491
0.000917085
0.000878271
0.000878225
0.000878225
0.0008804
0.000841586
0.00084154
0.00084154
0.000843715
0.000804903
0.000804856
0.000804856
0.000807031
0.000768219
0.000768173
0.000768173
0.000770348
0.000731536
0.00073149
0.00073149
0.000733664
0.000694853
0.000694806
0.000694806
0.000696981
0.000658169
0.000658123
0.000658123
0.000660298
0.000621485
0.000621439
0.000621439
0.000623614
0.000584801
0.000584754
0.000584754
0.000586929
0.000548117
0.000548071
0.000548071
0.000550245
0.000511436
0.000511389
0.000511389
0.000513564
0.000474756
0.00047471
0.00047471
0.000476884
0.000438077
0.000438031
0.000438031
0.000440205
0.000401399
0.000401353
0.000401353
0.000403527
0.000364722
0.000364675
0.000364675
0.000366848
0.000328045
0.000327998
0.000327998
0.00033017
0.000291367
0.000291321
0.000291321
0.000293492
0.000254689
0.000254642
0.000254642
0.000256811
0.000218007
0.000217962
0.000217962
0.000220126
0.000181321
0.000181278
0.000181278
0.000183436
0.000144628
0.000144589
0.000144589
0.000146736
0.000107918
0.000107889
0.000107888
0.000110017
7.12141e-05
7.11739e-05
7.11724e-05
7.32748e-05
3.53722e-05
3.487e-05
3.48663e-05
3.67277e-05
5.26984e-06
4.88485e-06
4.88495e-06
4.8776e-06
0.00357262
0.00357172
0.00357172
0.00357263
0.00357175
0.00357169
0.00357458
0.0035746
0.0035746
0.0035746
0.00357173
0.00357168
0.00357262
0.00357168
0.00357167
0.00357259
0.00356697
0.00353443
0.00356512
0.00356509
0.00353582
0.0035358
0.00356695
0.00353444
0.00356509
0.00356511
0.00353589
0.00353582
0.00356509
0.00353593
0.00353581
0.00356697
0.00353444
0.00356509
0.00353577
0.00353582
0.00353443
0.0035303
0.00349831
0.00352724
0.00352729
0.00350073
0.0035007
0.00353031
0.00349832
0.00352729
0.00352721
0.00350074
0.00350073
0.00352723
0.00350077
0.00350073
0.00353029
0.00349832
0.00352724
0.00350067
0.00350071
0.00349833
0.00349299
0.00345419
0.00349074
0.00349076
0.00345719
0.00345719
0.003493
0.00345418
0.00349075
0.00349066
0.00345717
0.00345719
0.0034907
0.00345711
0.00345722
0.00349298
0.00345418
0.00349074
0.00345718
0.00345715
0.00345417
0.00344808
0.00340641
0.00344533
0.00344536
0.00340948
0.00340949
0.00344807
0.00340639
0.00344536
0.00344528
0.00340956
0.00340948
0.00344531
0.0034096
0.00340949
0.00344805
0.00340643
0.00344533
0.00340952
0.00340949
0.00340641
0.00340025
0.0033583
0.00339753
0.00339754
0.00336143
0.00336136
0.00340022
0.00335822
0.00339751
0.0033975
0.00336144
0.00336141
0.00339753
0.00336143
0.00336138
0.00340024
0.00335831
0.00339751
0.00336141
0.00336141
0.00335828
0.00335209
0.0033103
0.00334934
0.00334928
0.00331334
0.00331331
0.00335204
0.00331034
0.00334923
0.00334929
0.00331327
0.00331334
0.00334932
0.00331326
0.00331333
0.0033521
0.00331034
0.00334933
0.0033133
0.00331332
0.00331032
0.00330419
0.0032632
0.00330145
0.00330146
0.00326609
0.00326616
0.00330423
0.00326323
0.0033013
0.00330142
0.00326608
0.00326611
0.00330142
0.00326594
0.00326611
0.00330424
0.00326318
0.00330146
0.00326613
0.00326612
0.00326319
0.00325721
0.003217
0.00325444
0.00325443
0.00321981
0.00321981
0.00325724
0.00321703
0.0032543
0.00325439
0.00321971
0.00321978
0.00325444
0.00321968
0.00321982
0.0032572
0.00321705
0.00325443
0.00321981
0.00321981
0.00321703
0.00321118
0.00317192
0.00320843
0.00320847
0.0031746
0.00317458
0.00321118
0.00317188
0.00320838
0.00320844
0.00317455
0.00317454
0.00320847
0.00317445
0.00317461
0.00321121
0.00317188
0.00320844
0.00317457
0.00317457
0.0031719
0.00316621
0.00312765
0.00316343
0.00316349
0.00313027
0.00313023
0.00316618
0.00312764
0.00316346
0.00316344
0.00313029
0.00313028
0.00316343
0.00313026
0.00313031
0.00316619
0.00312767
0.00316344
0.0031303
0.00313029
0.00312767
0.00312205
0.00308421
0.00311933
0.00311928
0.00308681
0.00308679
0.00312204
0.00308424
0.00311937
0.00311935
0.00308682
0.00308681
0.00311931
0.00308685
0.00308682
0.00312208
0.00308422
0.00311933
0.00308681
0.0030868
0.00308422
0.00307871
0.00304148
0.00307606
0.00307608
0.00304403
0.00304403
0.00307875
0.00304151
0.00307607
0.00307606
0.003044
0.00304399
0.00307604
0.00304398
0.00304401
0.00307871
0.00304151
0.00307602
0.003044
0.00304404
0.00304146
0.00303606
0.00299937
0.00303342
0.00303342
0.00300189
0.00300187
0.00303608
0.00299939
0.00303342
0.00303341
0.00300184
0.00300184
0.00303335
0.00300185
0.0030018
0.00303606
0.0029994
0.00303337
0.00300183
0.00300182
0.00299927
0.00299406
0.00295833
0.00299151
0.00299151
0.00296071
0.00296075
0.00299406
0.00295832
0.0029915
0.00299149
0.00296072
0.00296075
0.00299141
0.00296074
0.00296068
0.00299407
0.00295832
0.00299145
0.00296072
0.00296065
0.00295835
0.0029531
0.00291841
0.00295058
0.00295061
0.00292064
0.00292069
0.00295311
0.00291845
0.00295058
0.0029506
0.00292069
0.00292071
0.0029506
0.00292072
0.00292079
0.00295311
0.00291844
0.00295056
0.00292072
0.00292078
0.00291851
0.00291343
0.00288021
0.00291094
0.00291099
0.0028824
0.00288238
0.00291345
0.00288019
0.00291099
0.00291101
0.00288239
0.00288237
0.00291106
0.00288237
0.00288238
0.00291345
0.00288019
0.00291106
0.00288238
0.00288238
0.00288019
0.00287533
0.00284143
0.00287288
0.00287285
0.00284365
0.00284364
0.00287529
0.00284142
0.00287284
0.00287281
0.00284364
0.00284364
0.00287285
0.00284363
0.00284363
0.0028753
0.00284143
0.00287284
0.00284364
0.00284363
0.00284141
0.00283631
0.00280147
0.00283376
0.00283375
0.00280369
0.00280369
0.0028363
0.00280147
0.00283375
0.00283375
0.00280369
0.00280369
0.00283374
0.00280369
0.00280369
0.00283631
0.00280147
0.00283374
0.00280369
0.00280369
0.00280147
0.0027962
0.00276101
0.00279357
0.00279357
0.00276327
0.00276327
0.0027962
0.00276101
0.00279357
0.00279357
0.00276327
0.00276327
0.00279357
0.00276327
0.00276327
0.0027962
0.00276101
0.00279357
0.00276327
0.00276327
0.00276101
0.0027558
0.00272154
0.00275327
0.00275327
0.00272375
0.00272375
0.00275579
0.00272154
0.00275327
0.00275327
0.00272375
0.00272375
0.00275327
0.00272375
0.00272375
0.0027558
0.00272154
0.00275327
0.00272375
0.00272375
0.00272154
0.00271646
0.00268335
0.00271408
0.00271408
0.00268557
0.00268557
0.00271646
0.00268335
0.00271408
0.00271408
0.00268557
0.00268557
0.00271408
0.00268557
0.00268557
0.00271646
0.00268335
0.00271408
0.00268557
0.00268557
0.00268335
0.00267844
0.00264616
0.0026762
0.0026762
0.00264835
0.00264835
0.00267843
0.00264616
0.0026762
0.0026762
0.00264835
0.00264836
0.0026762
0.00264835
0.00264835
0.00267844
0.00264617
0.0026762
0.00264836
0.00264835
0.00264616
0.00264132
0.00260939
0.00263914
0.00263914
0.00261156
0.00261156
0.00264132
0.00260939
0.00263914
0.00263914
0.00261156
0.00261156
0.00263914
0.00261156
0.00261156
0.00264132
0.00260939
0.00263914
0.00261156
0.00261156
0.00260939
0.00260456
0.0025727
0.00260239
0.00260239
0.00257487
0.00257487
0.00260456
0.0025727
0.00260239
0.00260239
0.00257487
0.00257487
0.00260239
0.00257487
0.00257487
0.00260456
0.0025727
0.00260239
0.00257487
0.00257487
0.0025727
0.00256787
0.00253602
0.0025657
0.0025657
0.00253819
0.00253819
0.00256787
0.00253602
0.0025657
0.0025657
0.00253819
0.00253819
0.0025657
0.00253819
0.00253819
0.00256787
0.00253602
0.0025657
0.00253819
0.00253819
0.00253602
0.00253119
0.00249934
0.00252902
0.00252902
0.00250151
0.00250151
0.00253119
0.00249934
0.00252902
0.00252902
0.00250151
0.00250151
0.00252902
0.00250151
0.00250151
0.00253119
0.00249934
0.00252902
0.00250151
0.00250151
0.00249934
0.00249451
0.00246266
0.00249234
0.00249234
0.00246483
0.00246483
0.00249451
0.00246266
0.00249234
0.00249234
0.00246483
0.00246483
0.00249234
0.00246483
0.00246483
0.00249451
0.00246266
0.00249234
0.00246483
0.00246483
0.00246266
0.00245783
0.00242598
0.00245566
0.00245566
0.00242815
0.00242815
0.00245783
0.00242598
0.00245566
0.00245566
0.00242815
0.00242815
0.00245566
0.00242815
0.00242815
0.00245783
0.00242598
0.00245566
0.00242815
0.00242815
0.00242598
0.00242115
0.0023893
0.00241898
0.00241898
0.00239147
0.00239147
0.00242115
0.0023893
0.00241898
0.00241898
0.00239147
0.00239147
0.00241898
0.00239147
0.00239147
0.00242115
0.0023893
0.00241898
0.00239147
0.00239147
0.0023893
0.00238447
0.00235262
0.0023823
0.0023823
0.00235479
0.00235479
0.00238447
0.00235262
0.0023823
0.0023823
0.00235479
0.00235479
0.0023823
0.00235479
0.00235479
0.00238447
0.00235262
0.0023823
0.00235479
0.00235479
0.00235262
0.00234779
0.00231594
0.00234562
0.00234562
0.00231811
0.00231811
0.00234779
0.00231594
0.00234562
0.00234562
0.00231811
0.00231811
0.00234562
0.00231811
0.00231811
0.00234779
0.00231594
0.00234562
0.00231811
0.00231811
0.00231594
0.00231111
0.00227926
0.00230894
0.00230894
0.00228143
0.00228143
0.00231111
0.00227926
0.00230894
0.00230894
0.00228143
0.00228143
0.00230894
0.00228143
0.00228143
0.00231111
0.00227926
0.00230894
0.00228143
0.00228143
0.00227926
0.00227443
0.00224258
0.00227226
0.00227226
0.00224475
0.00224475
0.00227443
0.00224258
0.00227226
0.00227226
0.00224475
0.00224475
0.00227226
0.00224475
0.00224475
0.00227443
0.00224258
0.00227226
0.00224475
0.00224475
0.00224258
0.00223775
0.00220589
0.00223558
0.00223558
0.00220806
0.00220806
0.00223775
0.00220589
0.00223558
0.00223558
0.00220806
0.00220806
0.00223558
0.00220806
0.00220806
0.00223775
0.00220589
0.00223558
0.00220806
0.00220806
0.00220589
0.00220107
0.00216921
0.00219889
0.00219889
0.00217138
0.00217138
0.00220107
0.00216921
0.00219889
0.00219889
0.00217138
0.00217138
0.00219889
0.00217138
0.00217138
0.00220107
0.00216921
0.00219889
0.00217138
0.00217138
0.00216921
0.00216439
0.00213253
0.00216221
0.00216221
0.0021347
0.0021347
0.00216439
0.00213253
0.00216221
0.00216221
0.0021347
0.0021347
0.00216221
0.0021347
0.0021347
0.00216439
0.00213253
0.00216221
0.0021347
0.0021347
0.00213253
0.00212771
0.00209585
0.00212553
0.00212553
0.00209802
0.00209802
0.00212771
0.00209585
0.00212553
0.00212553
0.00209802
0.00209802
0.00212553
0.00209802
0.00209802
0.00212771
0.00209585
0.00212553
0.00209802
0.00209802
0.00209585
0.00209102
0.00205917
0.00208885
0.00208885
0.00206134
0.00206134
0.00209102
0.00205917
0.00208885
0.00208885
0.00206134
0.00206134
0.00208885
0.00206134
0.00206134
0.00209102
0.00205917
0.00208885
0.00206134
0.00206134
0.00205917
0.00205434
0.00202249
0.00205217
0.00205217
0.00202466
0.00202466
0.00205434
0.00202249
0.00205217
0.00205217
0.00202466
0.00202466
0.00205217
0.00202466
0.00202466
0.00205434
0.00202249
0.00205217
0.00202466
0.00202466
0.00202249
0.00201766
0.00198581
0.00201549
0.00201549
0.00198798
0.00198798
0.00201766
0.00198581
0.00201549
0.00201549
0.00198798
0.00198798
0.00201549
0.00198798
0.00198798
0.00201766
0.00198581
0.00201549
0.00198798
0.00198798
0.00198581
0.00198098
0.00194912
0.00197881
0.00197881
0.00195129
0.00195129
0.00198098
0.00194912
0.00197881
0.00197881
0.00195129
0.00195129
0.00197881
0.00195129
0.00195129
0.00198098
0.00194912
0.00197881
0.00195129
0.00195129
0.00194912
0.0019443
0.00191244
0.00194212
0.00194212
0.00191461
0.00191461
0.0019443
0.00191244
0.00194212
0.00194212
0.00191461
0.00191461
0.00194212
0.00191461
0.00191461
0.0019443
0.00191244
0.00194212
0.00191461
0.00191461
0.00191244
0.00190761
0.00187576
0.00190544
0.00190544
0.00187793
0.00187793
0.00190761
0.00187576
0.00190544
0.00190544
0.00187793
0.00187793
0.00190544
0.00187793
0.00187793
0.00190762
0.00187576
0.00190544
0.00187793
0.00187793
0.00187576
0.00187093
0.00183907
0.00186876
0.00186876
0.00184124
0.00184124
0.00187093
0.00183907
0.00186876
0.00186876
0.00184124
0.00184124
0.00186876
0.00184124
0.00184124
0.00187093
0.00183907
0.00186876
0.00184124
0.00184124
0.00183907
0.00183425
0.00180239
0.00183207
0.00183207
0.00180456
0.00180456
0.00183425
0.00180239
0.00183207
0.00183207
0.00180456
0.00180456
0.00183207
0.00180456
0.00180456
0.00183425
0.00180239
0.00183207
0.00180456
0.00180456
0.00180239
0.00179756
0.0017657
0.00179538
0.00179538
0.00176787
0.00176787
0.00179756
0.0017657
0.00179538
0.00179538
0.00176787
0.00176787
0.00179538
0.00176787
0.00176787
0.00179756
0.0017657
0.00179538
0.00176787
0.00176787
0.0017657
0.00176087
0.00172901
0.0017587
0.0017587
0.00173118
0.00173118
0.00176087
0.00172901
0.0017587
0.0017587
0.00173118
0.00173118
0.0017587
0.00173118
0.00173118
0.00176087
0.00172901
0.0017587
0.00173118
0.00173118
0.00172901
0.00172419
0.00169233
0.00172201
0.00172201
0.0016945
0.0016945
0.00172419
0.00169233
0.00172201
0.00172201
0.0016945
0.0016945
0.00172201
0.0016945
0.0016945
0.00172419
0.00169233
0.00172201
0.0016945
0.0016945
0.00169233
0.0016875
0.00165564
0.00168533
0.00168533
0.00165781
0.00165781
0.0016875
0.00165564
0.00168533
0.00168533
0.00165781
0.00165781
0.00168533
0.00165781
0.00165781
0.0016875
0.00165564
0.00168533
0.00165781
0.00165781
0.00165564
0.00165082
0.00161896
0.00164864
0.00164864
0.00162113
0.00162113
0.00165082
0.00161896
0.00164864
0.00164864
0.00162113
0.00162113
0.00164864
0.00162113
0.00162113
0.00165082
0.00161896
0.00164864
0.00162113
0.00162113
0.00161896
0.00161413
0.00158227
0.00161196
0.00161196
0.00158444
0.00158444
0.00161413
0.00158227
0.00161196
0.00161196
0.00158444
0.00158444
0.00161196
0.00158444
0.00158444
0.00161413
0.00158227
0.00161196
0.00158444
0.00158444
0.00158227
0.00157745
0.00154559
0.00157527
0.00157527
0.00154776
0.00154776
0.00157745
0.00154559
0.00157527
0.00157527
0.00154776
0.00154776
0.00157527
0.00154776
0.00154776
0.00157745
0.00154559
0.00157527
0.00154776
0.00154776
0.00154559
0.00154076
0.0015089
0.00153858
0.00153858
0.00151107
0.00151107
0.00154076
0.0015089
0.00153858
0.00153858
0.00151107
0.00151107
0.00153858
0.00151107
0.00151107
0.00154076
0.0015089
0.00153858
0.00151107
0.00151107
0.0015089
0.00150407
0.00147221
0.0015019
0.0015019
0.00147438
0.00147438
0.00150407
0.00147221
0.0015019
0.0015019
0.00147438
0.00147438
0.0015019
0.00147438
0.00147438
0.00150407
0.00147221
0.0015019
0.00147438
0.00147438
0.00147221
0.00146739
0.00143553
0.00146521
0.00146521
0.0014377
0.0014377
0.00146739
0.00143553
0.00146521
0.00146521
0.0014377
0.0014377
0.00146521
0.0014377
0.0014377
0.00146739
0.00143553
0.00146521
0.0014377
0.0014377
0.00143553
0.0014307
0.00139884
0.00142852
0.00142852
0.00140101
0.00140101
0.0014307
0.00139884
0.00142852
0.00142852
0.00140101
0.00140101
0.00142852
0.00140101
0.00140101
0.0014307
0.00139884
0.00142852
0.00140101
0.00140101
0.00139884
0.00139401
0.00136216
0.00139184
0.00139184
0.00136433
0.00136433
0.00139401
0.00136216
0.00139184
0.00139184
0.00136433
0.00136433
0.00139184
0.00136433
0.00136433
0.00139401
0.00136216
0.00139184
0.00136433
0.00136433
0.00136216
0.00135733
0.00132547
0.00135516
0.00135515
0.00132764
0.00132764
0.00135733
0.00132547
0.00135515
0.00135516
0.00132764
0.00132764
0.00135516
0.00132764
0.00132764
0.00135733
0.00132547
0.00135516
0.00132764
0.00132764
0.00132547
0.00132064
0.00128878
0.00131847
0.00131847
0.00129095
0.00129095
0.00132064
0.00128878
0.00131847
0.00131847
0.00129095
0.00129095
0.00131847
0.00129095
0.00129095
0.00132064
0.00128878
0.00131847
0.00129095
0.00129095
0.00128878
0.00128396
0.00125209
0.00128178
0.00128178
0.00125427
0.00125427
0.00128396
0.00125209
0.00128178
0.00128178
0.00125427
0.00125427
0.00128178
0.00125427
0.00125427
0.00128396
0.00125209
0.00128178
0.00125427
0.00125427
0.00125209
0.00124727
0.00121541
0.00124509
0.00124509
0.00121758
0.00121758
0.00124727
0.00121541
0.00124509
0.00124509
0.00121758
0.00121758
0.00124509
0.00121758
0.00121758
0.00124727
0.00121541
0.00124509
0.00121758
0.00121758
0.00121541
0.00121058
0.00117872
0.00120841
0.00120841
0.00118089
0.00118089
0.00121058
0.00117872
0.00120841
0.00120841
0.00118089
0.00118089
0.00120841
0.00118089
0.00118089
0.00121058
0.00117872
0.00120841
0.00118089
0.00118089
0.00117872
0.00117389
0.00114203
0.00117172
0.00117172
0.0011442
0.0011442
0.00117389
0.00114203
0.00117172
0.00117172
0.0011442
0.0011442
0.00117172
0.0011442
0.0011442
0.00117389
0.00114203
0.00117172
0.0011442
0.0011442
0.00114203
0.00113721
0.00110534
0.00113503
0.00113503
0.00110752
0.00110752
0.00113721
0.00110535
0.00113503
0.00113503
0.00110752
0.00110752
0.00113503
0.00110752
0.00110752
0.00113721
0.00110534
0.00113503
0.00110752
0.00110752
0.00110534
0.00110052
0.00106866
0.00109834
0.00109834
0.00107083
0.00107083
0.00110052
0.00106866
0.00109834
0.00109834
0.00107083
0.00107083
0.00109834
0.00107083
0.00107083
0.00110052
0.00106866
0.00109834
0.00107083
0.00107083
0.00106866
0.00106383
0.00103197
0.00106166
0.00106166
0.00103414
0.00103414
0.00106383
0.00103197
0.00106166
0.00106166
0.00103414
0.00103414
0.00106166
0.00103414
0.00103414
0.00106383
0.00103197
0.00106166
0.00103414
0.00103414
0.00103197
0.00102714
0.000995284
0.00102497
0.00102497
0.000997455
0.000997455
0.00102714
0.000995284
0.00102497
0.00102497
0.000997454
0.000997455
0.00102497
0.000997455
0.000997455
0.00102714
0.000995284
0.00102497
0.000997454
0.000997454
0.000995284
0.000990458
0.000958597
0.000988283
0.000988283
0.000960768
0.000960768
0.000990458
0.000958598
0.000988283
0.000988283
0.000960768
0.000960768
0.000988283
0.000960768
0.000960768
0.000990458
0.000958597
0.000988283
0.000960768
0.000960768
0.000958597
0.000953771
0.000921911
0.000951596
0.000951596
0.000924082
0.000924082
0.000953771
0.000921911
0.000951596
0.000951596
0.000924082
0.000924082
0.000951596
0.000924082
0.000924082
0.000953771
0.000921911
0.000951596
0.000924081
0.000924081
0.000921911
0.000917085
0.000885226
0.00091491
0.00091491
0.000887396
0.000887396
0.000917085
0.000885226
0.00091491
0.00091491
0.000887396
0.000887396
0.00091491
0.000887396
0.000887396
0.000917085
0.000885226
0.00091491
0.000887397
0.000887396
0.000885226
0.0008804
0.000848541
0.000878225
0.000878225
0.000850711
0.000850711
0.0008804
0.000848541
0.000878225
0.000878225
0.000850711
0.000850711
0.000878225
0.000850711
0.000850711
0.0008804
0.000848541
0.000878225
0.000850711
0.000850711
0.000848541
0.000843715
0.000811857
0.00084154
0.00084154
0.000814027
0.000814027
0.000843715
0.000811857
0.00084154
0.00084154
0.000814027
0.000814027
0.00084154
0.000814027
0.000814027
0.000843715
0.000811857
0.00084154
0.000814027
0.000814027
0.000811857
0.000807031
0.000775173
0.000804856
0.000804856
0.000777344
0.000777344
0.000807031
0.000775173
0.000804856
0.000804857
0.000777344
0.000777344
0.000804857
0.000777344
0.000777344
0.000807031
0.000775173
0.000804856
0.000777344
0.000777344
0.000775173
0.000770348
0.00073849
0.000768173
0.000768173
0.000740661
0.00074066
0.000770348
0.00073849
0.000768173
0.000768173
0.00074066
0.000740661
0.000768173
0.00074066
0.000740661
0.000770348
0.00073849
0.000768173
0.000740661
0.00074066
0.00073849
0.000733665
0.000701807
0.00073149
0.00073149
0.000703978
0.000703977
0.000733664
0.000701807
0.00073149
0.00073149
0.000703977
0.000703977
0.00073149
0.000703978
0.000703978
0.000733664
0.000701807
0.00073149
0.000703978
0.000703978
0.000701807
0.000696981
0.000665124
0.000694806
0.000694806
0.000667294
0.000667294
0.000696981
0.000665124
0.000694806
0.000694806
0.000667294
0.000667294
0.000694807
0.000667294
0.000667294
0.000696981
0.000665123
0.000694806
0.000667294
0.000667294
0.000665124
0.000660297
0.000628439
0.000658123
0.000658123
0.000630609
0.000630609
0.000660297
0.000628439
0.000658123
0.000658123
0.000630609
0.000630609
0.000658123
0.000630609
0.00063061
0.000660297
0.000628439
0.000658123
0.000630609
0.000630609
0.000628439
0.000623613
0.000591755
0.000621439
0.000621439
0.000593925
0.000593925
0.000623613
0.000591755
0.000621439
0.000621439
0.000593925
0.000593925
0.000621439
0.000593925
0.000593925
0.000623614
0.000591755
0.000621439
0.000593925
0.000593925
0.000591755
0.000586929
0.000555071
0.000584754
0.000584754
0.000557242
0.000557241
0.000586929
0.000555071
0.000584754
0.000584754
0.000557241
0.000557242
0.000584754
0.000557241
0.000557242
0.000586929
0.000555071
0.000584754
0.000557242
0.000557241
0.000555071
0.000550245
0.000518389
0.000548071
0.000548071
0.00052056
0.000520559
0.000550245
0.00051839
0.000548071
0.000548071
0.000520559
0.00052056
0.000548071
0.00052056
0.00052056
0.000550245
0.000518389
0.000548071
0.00052056
0.00052056
0.000518389
0.000513564
0.000481709
0.000511389
0.000511389
0.000483879
0.000483879
0.000513564
0.000481709
0.000511389
0.000511389
0.000483879
0.000483879
0.00051139
0.000483879
0.000483879
0.000513564
0.000481709
0.000511389
0.000483879
0.000483879
0.000481709
0.000476884
0.00044503
0.00047471
0.00047471
0.0004472
0.0004472
0.000476884
0.00044503
0.00047471
0.00047471
0.0004472
0.0004472
0.00047471
0.0004472
0.0004472
0.000476884
0.00044503
0.00047471
0.0004472
0.0004472
0.00044503
0.000440205
0.000408352
0.000438031
0.000438031
0.000410522
0.000410522
0.000440205
0.000408352
0.000438031
0.000438031
0.000410522
0.000410522
0.000438031
0.000410522
0.000410522
0.000440205
0.000408352
0.000438031
0.000410522
0.000410522
0.000408352
0.000403526
0.000371675
0.000401353
0.000401353
0.000373844
0.000373844
0.000403526
0.000371675
0.000401353
0.000401353
0.000373844
0.000373844
0.000401353
0.000373844
0.000373844
0.000403526
0.000371675
0.000401353
0.000373844
0.000373844
0.000371675
0.000366848
0.000334998
0.000364675
0.000364675
0.000337167
0.000337167
0.000366848
0.000334998
0.000364675
0.000364675
0.000337167
0.000337167
0.000364675
0.000337167
0.000337167
0.000366848
0.000334998
0.000364675
0.000337167
0.000337167
0.000334998
0.00033017
0.000298321
0.000327998
0.000327998
0.000300489
0.000300489
0.00033017
0.000298321
0.000327998
0.000327998
0.000300489
0.000300489
0.000327998
0.000300489
0.000300489
0.00033017
0.000298321
0.000327998
0.000300489
0.000300489
0.000298321
0.000293492
0.000261644
0.000291321
0.000291321
0.000263811
0.000263811
0.000293492
0.000261644
0.000291321
0.000291321
0.000263811
0.000263811
0.000291321
0.000263811
0.000263811
0.000293492
0.000261643
0.000291321
0.000263811
0.000263811
0.000261644
0.000256811
0.000224965
0.000254642
0.000254642
0.00022713
0.00022713
0.000256811
0.000224965
0.000254642
0.000254642
0.00022713
0.00022713
0.000254642
0.00022713
0.00022713
0.000256811
0.000224965
0.000254642
0.00022713
0.00022713
0.000224965
0.000220126
0.000188284
0.000217962
0.000217962
0.000190447
0.000190447
0.000220126
0.000188285
0.000217962
0.000217962
0.000190447
0.000190447
0.000217962
0.000190447
0.000190447
0.000220127
0.000188284
0.000217962
0.000190447
0.000190447
0.000188284
0.000183436
0.000151599
0.000181279
0.000181278
0.000153758
0.000153758
0.000183436
0.000151599
0.000181278
0.000181278
0.000153758
0.000153758
0.000181279
0.000153758
0.000153759
0.000183436
0.000151599
0.000181278
0.000153758
0.000153759
0.000151599
0.000146735
0.000114906
0.000144589
0.000144589
0.000117059
0.000117059
0.000146735
0.000114906
0.000144589
0.000144589
0.000117059
0.000117059
0.00014459
0.000117059
0.000117059
0.000146736
0.000114905
0.000144589
0.000117059
0.000117059
0.000114905
0.000110018
7.8196e-05
0.000107889
0.000107889
8.03436e-05
8.03438e-05
0.000110018
7.81968e-05
0.000107889
0.000107889
8.0343e-05
8.03428e-05
0.000107889
8.03436e-05
8.03429e-05
0.000110017
7.81952e-05
0.000107889
8.03427e-05
8.03427e-05
7.81952e-05
7.32761e-05
4.15956e-05
7.1174e-05
7.11742e-05
4.37604e-05
4.37612e-05
7.32761e-05
4.15968e-05
7.11731e-05
7.11726e-05
4.37592e-05
4.37577e-05
7.1173e-05
4.37602e-05
4.37574e-05
7.32753e-05
4.15931e-05
7.11726e-05
4.37572e-05
4.37566e-05
4.15928e-05
3.67315e-05
8.21406e-06
3.48707e-05
3.48715e-05
1.06784e-05
1.06773e-05
3.67321e-05
8.21292e-06
3.48698e-05
3.48672e-05
1.06769e-05
1.06734e-05
3.48663e-05
1.06752e-05
1.06715e-05
3.67283e-05
8.21011e-06
3.4866e-05
1.06734e-05
1.06727e-05
8.20864e-06
4.88153e-06
4.88958e-06
4.88708e-06
4.88125e-06
4.88465e-06
4.88398e-06
5.26896e-06
5.26738e-06
5.26681e-06
4.88334e-06
4.87918e-06
4.88228e-06
0.00357899
0.00358369
0.00358149
0.00358149
0.00360244
0.00358538
0.00361108
0.00358306
0.00360242
0.00358535
0.00358305
0.00361106
0.00359283
0.0036142
0.00361418
0.00354834
0.00356341
0.003567
0.00354044
0.00354033
0.00354379
0.00354825
0.00356331
0.00356704
0.00354035
0.00356526
0.00356528
0.00356527
0.00353651
0.00353653
0.00353653
0.00353653
0.0035481
0.00356187
0.00356585
0.00355516
0.00356817
0.00354492
0.00355571
0.00354045
0.0035439
0.00354812
0.00356591
0.0035618
0.00355515
0.00356813
0.00355582
0.00354481
0.00356744
0.00356728
0.00355198
0.00354478
0.00354474
0.00352132
0.00353473
0.00353437
0.00351958
0.003532
0.0035186
0.00352124
0.0035347
0.00353441
0.00351951
0.0035278
0.00352777
0.00352779
0.00350152
0.0035015
0.00350154
0.00350154
0.00351893
0.00353369
0.00352713
0.00351881
0.00353183
0.00351984
0.00351848
0.0035321
0.00351859
0.00351893
0.0035271
0.00353376
0.00351864
0.00353179
0.0035185
0.00351965
0.0035352
0.00353526
0.00351762
0.00352044
0.00352037
0.00347929
0.00349431
0.00349513
0.0034781
0.00349303
0.00347728
0.00347921
0.00349427
0.00349515
0.00347804
0.00349155
0.00349154
0.00349155
0.00345788
0.00345787
0.00345789
0.00345788
0.00347768
0.0034941
0.00349046
0.00348007
0.0034932
0.00347856
0.00347975
0.00349297
0.0034772
0.00347768
0.00349043
0.00349408
0.00348006
0.00349316
0.0034798
0.00347833
0.00349445
0.0034945
0.00347713
0.00347843
0.00347843
0.00343225
0.00344907
0.00345052
0.00343092
0.00344841
0.00343045
0.00343221
0.00344906
0.00345052
0.00343093
0.00344598
0.00344599
0.003446
0.00341012
0.00341011
0.00341014
0.00341012
0.00343098
0.00344926
0.00344513
0.00343342
0.00344868
0.00343135
0.00343318
0.00344836
0.00343047
0.00343094
0.00344509
0.00344913
0.00343339
0.00344867
0.00343316
0.00343133
0.00344917
0.00344915
0.00343036
0.00343103
0.0034311
0.00338379
0.00340063
0.00340191
0.00338261
0.00340023
0.00338226
0.00338379
0.00340064
0.00340193
0.0033826
0.00339814
0.00339817
0.00339816
0.00336201
0.00336196
0.00336201
0.00336199
0.00338283
0.00340081
0.00339736
0.00338549
0.00340061
0.00338302
0.00338539
0.00340035
0.00338223
0.00338287
0.00339734
0.00340082
0.00338555
0.00340061
0.00338539
0.00338315
0.00340073
0.00340073
0.00338239
0.00338266
0.00338269
0.00333501
0.00335222
0.00335313
0.00333421
0.00335188
0.00333393
0.00333498
0.00335214
0.00335318
0.00333425
0.00334987
0.00334991
0.00334989
0.0033138
0.00331383
0.00331382
0.00331382
0.0033345
0.00335207
0.00334923
0.00333709
0.00335221
0.00333444
0.00333713