/*--------------------------------*- C++ -*----------------------------------*\
| =========                 |                                                 |
| \\      /  F ield         | OpenFOAM: The Open Source CFD Toolbox           |
|  \\    /   O peration     | Version:  v1906                                 |
|   \\  /    A nd           | Web:      www.OpenFOAM.com                      |
|    \\/     M anipulation  |                                                 |
\*---------------------------------------------------------------------------*/
FoamFile
{
    version     2.0;
    format      ascii;
    class       volScalarField;
    location    "62.5";
    object      epsilon;
}
// * * * * * * * * * * * * * * * * * * * * * * * * * * * * * * * * * * * * * //

dimensions      [0 2 -3 0 0 0 0];


internalField   nonuniform List<scalar> 
171728
(
2.41846e-07
3.58392e-08
3.98795e-08
1.12522e-08
2.47064e-07
4.2175e-08
4.60219e-08
1.3138e-08
2.56826e-07
5.22858e-08
5.59164e-08
1.7748e-08
2.66296e-07
6.52255e-08
6.83699e-08
2.56459e-08
2.75692e-07
8.14236e-08
8.36386e-08
3.60279e-08
2.85156e-07
1.00711e-07
1.02344e-07
4.92089e-08
2.94e-07
1.23893e-07
1.25159e-07
6.61619e-08
3.03594e-07
1.51839e-07
1.52588e-07
8.97561e-08
3.15159e-07
1.84623e-07
1.85046e-07
1.22044e-07
3.28871e-07
2.20741e-07
2.21112e-07
1.64798e-07
3.46649e-07
2.63145e-07
2.63267e-07
2.17868e-07
3.66448e-07
3.12672e-07
3.12904e-07
2.86577e-07
3.90448e-07
3.73686e-07
3.73811e-07
3.7946e-07
4.10419e-07
4.32808e-07
4.3285e-07
4.8084e-07
4.26972e-07
4.8553e-07
4.85561e-07
5.63291e-07
4.37168e-07
5.14363e-07
5.14394e-07
6.04958e-07
4.40336e-07
5.21472e-07
5.21503e-07
6.12464e-07
4.40911e-07
5.22501e-07
5.22531e-07
6.13406e-07
4.41001e-07
5.22641e-07
5.22672e-07
6.13551e-07
4.41025e-07
5.22673e-07
5.22704e-07
6.13556e-07
4.41039e-07
5.2269e-07
5.2272e-07
6.1357e-07
4.41049e-07
5.22706e-07
5.22734e-07
6.13578e-07
4.41057e-07
5.22711e-07
5.22736e-07
6.13575e-07
4.4106e-07
5.22711e-07
5.22737e-07
6.13579e-07
4.41059e-07
5.2271e-07
5.22737e-07
6.13582e-07
4.41059e-07
5.2271e-07
5.22738e-07
6.13581e-07
4.4106e-07
5.2271e-07
5.22738e-07
6.13582e-07
4.4106e-07
5.2271e-07
5.22737e-07
6.13585e-07
4.4106e-07
5.22711e-07
5.22737e-07
6.13585e-07
4.4106e-07
5.22712e-07
5.22738e-07
6.13585e-07
4.41061e-07
5.22712e-07
5.22737e-07
6.13587e-07
4.41062e-07
5.22711e-07
5.22736e-07
6.13587e-07
4.41061e-07
5.2271e-07
5.22736e-07
6.13586e-07
4.4106e-07
5.2271e-07
5.22736e-07
6.13587e-07
4.41061e-07
5.2271e-07
5.22737e-07
6.13588e-07
4.41061e-07
5.22711e-07
5.22737e-07
6.13588e-07
4.4106e-07
5.22712e-07
5.22737e-07
6.13587e-07
4.4106e-07
5.22712e-07
5.22737e-07
6.13586e-07
4.4106e-07
5.22713e-07
5.22737e-07
6.13585e-07
4.41061e-07
5.22712e-07
5.22737e-07
6.13585e-07
4.41061e-07
5.22711e-07
5.22737e-07
6.13587e-07
4.4106e-07
5.2271e-07
5.22737e-07
6.13586e-07
4.4106e-07
5.22709e-07
5.22737e-07
6.13585e-07
4.41063e-07
5.22708e-07
5.22737e-07
6.13585e-07
4.41064e-07
5.22708e-07
5.22736e-07
6.13586e-07
4.41062e-07
5.22708e-07
5.22736e-07
6.13586e-07
4.41062e-07
5.22709e-07
5.22737e-07
6.13585e-07
4.41061e-07
5.2271e-07
5.22738e-07
6.13584e-07
4.41061e-07
5.2271e-07
5.22738e-07
6.13585e-07
4.4106e-07
5.22709e-07
5.22737e-07
6.13586e-07
4.41061e-07
5.2271e-07
5.22737e-07
6.13586e-07
4.41061e-07
5.2271e-07
5.22737e-07
6.13585e-07
4.4106e-07
5.22711e-07
5.22736e-07
6.13586e-07
4.4106e-07
5.22712e-07
5.22736e-07
6.13587e-07
4.41059e-07
5.22711e-07
5.22736e-07
6.13587e-07
4.4106e-07
5.2271e-07
5.22736e-07
6.13585e-07
4.41059e-07
5.22709e-07
5.22737e-07
6.13583e-07
4.41059e-07
5.2271e-07
5.22737e-07
6.13583e-07
4.41059e-07
5.2271e-07
5.22737e-07
6.13584e-07
4.41058e-07
5.22709e-07
5.22737e-07
6.13584e-07
4.41058e-07
5.22708e-07
5.22737e-07
6.13582e-07
4.41058e-07
5.22709e-07
5.22737e-07
6.13584e-07
4.41058e-07
5.22708e-07
5.22737e-07
6.13584e-07
4.41058e-07
5.22708e-07
5.22737e-07
6.13584e-07
4.41059e-07
5.22708e-07
5.22737e-07
6.13587e-07
4.41059e-07
5.22708e-07
5.22736e-07
6.13587e-07
4.41059e-07
5.22709e-07
5.22737e-07
6.13582e-07
4.4106e-07
5.22709e-07
5.22737e-07
6.13583e-07
4.41062e-07
5.22709e-07
5.22736e-07
6.13587e-07
4.41062e-07
5.22709e-07
5.22736e-07
6.13587e-07
4.41061e-07
5.22709e-07
5.22737e-07
6.13584e-07
4.4106e-07
5.2271e-07
5.22738e-07
6.13584e-07
4.41059e-07
5.22711e-07
5.22737e-07
6.13584e-07
4.41058e-07
5.22711e-07
5.22736e-07
6.13586e-07
4.41058e-07
5.2271e-07
5.22736e-07
6.13586e-07
4.41058e-07
5.22711e-07
5.22736e-07
6.13585e-07
4.41058e-07
5.22711e-07
5.22737e-07
6.13583e-07
4.41059e-07
5.2271e-07
5.22738e-07
6.13585e-07
4.41062e-07
5.2271e-07
5.22739e-07
6.13588e-07
4.41062e-07
5.2271e-07
5.22738e-07
6.13587e-07
4.41062e-07
5.22711e-07
5.2274e-07
6.13583e-07
4.41065e-07
5.22715e-07
5.22742e-07
6.13583e-07
4.41065e-07
5.22717e-07
5.22745e-07
6.13585e-07
4.4107e-07
5.22717e-07
5.22746e-07
6.13587e-07
4.41069e-07
5.22719e-07
5.22748e-07
6.13587e-07
4.41069e-07
5.22721e-07
5.2275e-07
6.13586e-07
4.41073e-07
5.22723e-07
5.22751e-07
6.13586e-07
4.41076e-07
5.22725e-07
5.22752e-07
6.13586e-07
4.41078e-07
5.22726e-07
5.22753e-07
6.13586e-07
4.41079e-07
5.22726e-07
5.22753e-07
6.13585e-07
4.41079e-07
5.22723e-07
5.2275e-07
6.13578e-07
4.41082e-07
5.22715e-07
5.22741e-07
6.13567e-07
4.41084e-07
5.22694e-07
5.22719e-07
6.13546e-07
4.41074e-07
5.22669e-07
5.22693e-07
6.13415e-07
4.39243e-07
5.10792e-07
5.10795e-07
5.97857e-07
1.43168e-08
3.56089e-08
3.54332e-08
1.16125e-08
3.0057e-08
2.94141e-08
2.44443e-07
2.43724e-07
2.43993e-07
2.45087e-07
2.91176e-08
3.20395e-08
1.15861e-08
3.11114e-08
3.21523e-08
1.1294e-08
1.42356e-08
1.58331e-08
4.38342e-08
5.10569e-08
4.809e-08
5.3232e-08
1.15684e-08
1.33396e-08
3.83424e-08
3.6884e-08
4.04685e-08
4.0694e-08
4.31064e-08
4.00853e-08
4.76775e-08
1.15468e-08
1.3308e-08
4.315e-08
4.39935e-08
4.78254e-08
1.31083e-08
1.58727e-08
1.96025e-08
5.0241e-08
5.41748e-08
5.76309e-08
5.65032e-08
1.33653e-08
1.71938e-08
4.22154e-08
4.26743e-08
4.92115e-08
4.96079e-08
4.99406e-08
4.95929e-08
5.75982e-08
1.33515e-08
1.73065e-08
5.01388e-08
5.32927e-08
5.79604e-08
1.75228e-08
1.97743e-08
2.62071e-08
6.03591e-08
5.74679e-08
6.97511e-08
6.2773e-08
1.73978e-08
2.40694e-08
5.18481e-08
5.22974e-08
6.11243e-08
6.16242e-08
6.03434e-08
6.17861e-08
6.98405e-08
1.75244e-08
2.44453e-08
6.08122e-08
6.51092e-08
7.04762e-08
2.51829e-08
2.66144e-08
3.58991e-08
7.31438e-08
6.5294e-08
8.44157e-08
7.59131e-08
2.45333e-08
3.42037e-08
6.45381e-08
6.49995e-08
7.61581e-08
7.67332e-08
7.32147e-08
7.69849e-08
8.40814e-08
2.49126e-08
3.46014e-08
7.39957e-08
7.94891e-08
8.52069e-08
3.54354e-08
3.65187e-08
4.88686e-08
8.85817e-08
8.02614e-08
1.01702e-07
9.45789e-08
3.48999e-08
4.79236e-08
8.04892e-08
8.11439e-08
9.45142e-08
9.52861e-08
8.81934e-08
9.56249e-08
1.00413e-07
3.52624e-08
4.80466e-08
8.93225e-08
9.7276e-08
1.02175e-07
4.83616e-08
4.97585e-08
6.61145e-08
1.0657e-07
9.98377e-08
1.22448e-07
1.16947e-07
4.88633e-08
6.55738e-08
9.9682e-08
1.00465e-07
1.16535e-07
1.17303e-07
1.04632e-07
1.1763e-07
1.18754e-07
4.89743e-08
6.56299e-08
1.06538e-07
1.19006e-07
1.20674e-07
6.49346e-08
6.73821e-08
8.90808e-08
1.28262e-07
1.23284e-07
1.47524e-07
1.43955e-07
6.68442e-08
8.86481e-08
1.22854e-07
1.23629e-07
1.43683e-07
1.44446e-07
1.24225e-07
1.44741e-07
1.43664e-07
6.69314e-08
8.89301e-08
1.26063e-07
1.45555e-07
1.44558e-07
8.78548e-08
9.0907e-08
1.1971e-07
1.54317e-07
1.51287e-07
1.76851e-07
1.75275e-07
9.05096e-08
1.19543e-07
1.50965e-07
1.5171e-07
1.75132e-07
1.75775e-07
1.50959e-07
1.75775e-07
1.7571e-07
9.0786e-08
1.19835e-07
1.51636e-07
1.76395e-07
1.75978e-07
1.1939e-07
1.22284e-07
1.58776e-07
1.85325e-07
1.84042e-07
2.11847e-07
2.10961e-07
1.2214e-07
1.58811e-07
1.83972e-07
1.84555e-07
2.10853e-07
2.11181e-07
1.84672e-07
2.11382e-07
2.11492e-07
1.22429e-07
1.58963e-07
1.84905e-07
2.11727e-07
2.11808e-07
1.59271e-07
1.64306e-07
2.08619e-07
2.21199e-07
2.20472e-07
2.52361e-07
2.51844e-07
1.6433e-07
2.08628e-07
2.20363e-07
2.20609e-07
2.51886e-07
2.51919e-07
2.20875e-07
2.52069e-07
2.51983e-07
1.64506e-07
2.08763e-07
2.21157e-07
2.52204e-07
2.52149e-07
2.08786e-07
2.17801e-07
2.74067e-07
2.63484e-07
2.62952e-07
2.99508e-07
2.99133e-07
2.17785e-07
2.73857e-07
2.63027e-07
2.63055e-07
2.99227e-07
2.99317e-07
2.63046e-07
2.99299e-07
2.99149e-07
2.17899e-07
2.74045e-07
2.63204e-07
2.99522e-07
2.99265e-07
2.73807e-07
2.86833e-07
3.62205e-07
3.12848e-07
3.12565e-07
3.57855e-07
3.5777e-07
2.86631e-07
3.62154e-07
3.12644e-07
3.12756e-07
3.57804e-07
3.57906e-07
3.12564e-07
3.57827e-07
3.57748e-07
2.86876e-07
3.62418e-07
3.12662e-07
3.57988e-07
3.57791e-07
3.62099e-07
3.79549e-07
4.64702e-07
3.73722e-07
3.73677e-07
4.18659e-07
4.1866e-07
3.79517e-07
4.64689e-07
3.73697e-07
3.73782e-07
4.18653e-07
4.187e-07
3.73654e-07
4.18656e-07
4.18644e-07
3.79743e-07
4.64766e-07
3.73683e-07
4.18709e-07
4.18644e-07
4.64681e-07
4.8086e-07
5.5045e-07
4.32834e-07
4.32843e-07
4.73738e-07
4.73751e-07
4.80849e-07
5.50433e-07
4.32826e-07
4.32872e-07
4.73709e-07
4.73766e-07
4.3283e-07
4.73705e-07
4.73738e-07
4.8091e-07
5.50482e-07
4.32823e-07
4.73734e-07
4.73711e-07
5.50464e-07
5.63284e-07
6.00308e-07
4.85586e-07
4.85605e-07
5.09987e-07
5.10007e-07
5.63265e-07
6.00278e-07
4.85558e-07
4.85618e-07
5.09953e-07
5.10015e-07
4.8559e-07
5.09932e-07
5.09991e-07
5.63309e-07
6.00325e-07
4.85559e-07
5.09963e-07
5.09954e-07
6.00329e-07
6.04944e-07
6.11175e-07
5.14434e-07
5.14452e-07
5.20763e-07
5.20776e-07
6.04914e-07
6.11136e-07
5.14399e-07
5.14461e-07
5.20727e-07
5.20784e-07
5.14438e-07
5.20696e-07
5.20766e-07
6.04957e-07
6.11182e-07
5.144e-07
5.20727e-07
5.20728e-07
6.112e-07
6.12452e-07
6.12574e-07
5.2155e-07
5.21562e-07
5.22479e-07
5.22486e-07
6.12413e-07
6.12531e-07
5.21514e-07
5.21571e-07
5.22442e-07
5.22497e-07
5.21552e-07
5.22405e-07
5.22476e-07
6.12454e-07
6.12575e-07
5.21515e-07
5.22435e-07
5.22439e-07
6.12592e-07
6.13397e-07
6.12783e-07
5.22584e-07
5.22589e-07
5.22707e-07
5.22708e-07
6.13352e-07
6.12738e-07
5.22547e-07
5.226e-07
5.22668e-07
5.22721e-07
5.22579e-07
5.22627e-07
5.22695e-07
6.13394e-07
6.12781e-07
5.22542e-07
5.22658e-07
5.22657e-07
6.12788e-07
6.13556e-07
6.12804e-07
5.22725e-07
5.22727e-07
5.22751e-07
5.22751e-07
6.1351e-07
6.12757e-07
5.22686e-07
5.22739e-07
5.22711e-07
5.22763e-07
5.22711e-07
5.22668e-07
5.22731e-07
6.13552e-07
6.12801e-07
5.22673e-07
5.22699e-07
5.22694e-07
6.1279e-07
6.13577e-07
6.12822e-07
5.22758e-07
5.2276e-07
5.22768e-07
5.22774e-07
6.1353e-07
6.12774e-07
5.22718e-07
5.22771e-07
5.2273e-07
5.22783e-07
5.22738e-07
5.22686e-07
5.2275e-07
6.13572e-07
6.12818e-07
5.22701e-07
5.22717e-07
5.22713e-07
6.12806e-07
6.13591e-07
6.12827e-07
5.22776e-07
5.22781e-07
5.22781e-07
5.22792e-07
6.13545e-07
6.12783e-07
5.22739e-07
5.22791e-07
5.22744e-07
5.228e-07
5.22758e-07
5.22703e-07
5.22764e-07
6.13586e-07
6.12825e-07
5.2272e-07
5.22733e-07
5.22727e-07
6.12815e-07
6.13598e-07
6.12828e-07
5.22788e-07
5.228e-07
5.22781e-07
5.22801e-07
6.13556e-07
6.12791e-07
5.2275e-07
5.22808e-07
5.22744e-07
5.22804e-07
5.2277e-07
5.22711e-07
5.22765e-07
6.13594e-07
6.12829e-07
5.22733e-07
5.22736e-07
5.22728e-07
6.12811e-07
6.13598e-07
6.12827e-07
5.22785e-07
5.22804e-07
5.2278e-07
5.228e-07
6.13562e-07
6.12789e-07
5.22749e-07
5.22808e-07
5.22744e-07
5.22804e-07
5.22771e-07
5.22711e-07
5.22765e-07
6.13596e-07
6.12827e-07
5.22735e-07
5.22737e-07
5.22731e-07
6.12815e-07
6.136e-07
6.12822e-07
5.22784e-07
5.22805e-07
5.22779e-07
5.228e-07
6.13563e-07
6.12785e-07
5.22748e-07
5.22808e-07
5.22744e-07
5.22804e-07
5.22768e-07
5.22711e-07
5.22764e-07
6.13597e-07
6.12824e-07
5.22738e-07
5.22737e-07
5.22735e-07
6.12814e-07
6.13595e-07
6.12822e-07
5.22782e-07
5.22804e-07
5.22777e-07
5.228e-07
6.13558e-07
6.12787e-07
5.22749e-07
5.22809e-07
5.22745e-07
5.22804e-07
5.22769e-07
5.2271e-07
5.22765e-07
6.13592e-07
6.12824e-07
5.22742e-07
5.22738e-07
5.22736e-07
6.12811e-07
6.13593e-07
6.12824e-07
5.22782e-07
5.22806e-07
5.22777e-07
5.228e-07
6.13557e-07
6.12788e-07
5.2275e-07
5.22808e-07
5.22745e-07
5.22804e-07
5.2277e-07
5.2271e-07
5.22765e-07
6.13591e-07
6.12826e-07
5.2274e-07
5.22738e-07
5.22735e-07
6.12809e-07
6.13594e-07
6.12825e-07
5.22781e-07
5.22804e-07
5.22776e-07
5.228e-07
6.13558e-07
6.12788e-07
5.22749e-07
5.2281e-07
5.22746e-07
5.22804e-07
5.2277e-07
5.2271e-07
5.22766e-07
6.13593e-07
6.12826e-07
5.2274e-07
5.22737e-07
5.22736e-07
6.12809e-07
6.13595e-07
6.12824e-07
5.2278e-07
5.22805e-07
5.22775e-07
5.228e-07
6.13558e-07
6.12788e-07
5.22751e-07
5.22808e-07
5.22746e-07
5.22804e-07
5.2277e-07
5.22711e-07
5.22766e-07
6.13593e-07
6.12827e-07
5.22741e-07
5.22737e-07
5.22736e-07
6.12807e-07
6.13594e-07
6.12823e-07
5.2278e-07
5.22804e-07
5.22775e-07
5.228e-07
6.13559e-07
6.12788e-07
5.22751e-07
5.22809e-07
5.22747e-07
5.22805e-07
5.22771e-07
5.22712e-07
5.22766e-07
6.13594e-07
6.12828e-07
5.2274e-07
5.22738e-07
5.22736e-07
6.12807e-07
6.13593e-07
6.12823e-07
5.22779e-07
5.22806e-07
5.22775e-07
5.22801e-07
6.13559e-07
6.12788e-07
5.22751e-07
5.22809e-07
5.22748e-07
5.22804e-07
5.22771e-07
5.22712e-07
5.22766e-07
6.13595e-07
6.12827e-07
5.22741e-07
5.22738e-07
5.22736e-07
6.12809e-07
6.13593e-07
6.12824e-07
5.2278e-07
5.22804e-07
5.22775e-07
5.22802e-07
6.1356e-07
6.12787e-07
5.22755e-07
5.22809e-07
5.2275e-07
5.22804e-07
5.22771e-07
5.22712e-07
5.22767e-07
6.13594e-07
6.12828e-07
5.22739e-07
5.22737e-07
5.22736e-07
6.12808e-07
6.13595e-07
6.12825e-07
5.22779e-07
5.22808e-07
5.22774e-07
5.22805e-07
6.13558e-07
6.12786e-07
5.22754e-07
5.22808e-07
5.22748e-07
5.22804e-07
5.22771e-07
5.22711e-07
5.22766e-07
6.13594e-07
6.12827e-07
5.22742e-07
5.22736e-07
5.22736e-07
6.12808e-07
6.13596e-07
6.12824e-07
5.22779e-07
5.2281e-07
5.22773e-07
5.22804e-07
6.13558e-07
6.12785e-07
5.22752e-07
5.2281e-07
5.22747e-07
5.22805e-07
5.22772e-07
5.2271e-07
5.22767e-07
6.13594e-07
6.12827e-07
5.2274e-07
5.22736e-07
5.22736e-07
6.1281e-07
6.13595e-07
6.12822e-07
5.22777e-07
5.22808e-07
5.22774e-07
5.22804e-07
6.13556e-07
6.12785e-07
5.22751e-07
5.22809e-07
5.22747e-07
5.22804e-07
5.22771e-07
5.2271e-07
5.22766e-07
6.13594e-07
6.12827e-07
5.22742e-07
5.22737e-07
5.22736e-07
6.1281e-07
6.13593e-07
6.12824e-07
5.22779e-07
5.22809e-07
5.22774e-07
5.22804e-07
6.13556e-07
6.12785e-07
5.22753e-07
5.2281e-07
5.22748e-07
5.22804e-07
5.22772e-07
5.22711e-07
5.22766e-07
6.13594e-07
6.12828e-07
5.22741e-07
5.22738e-07
5.22736e-07
6.12809e-07
6.13594e-07
6.12824e-07
5.22779e-07
5.22808e-07
5.22775e-07
5.22804e-07
6.13556e-07
6.12785e-07
5.22752e-07
5.22808e-07
5.22748e-07
5.22804e-07
5.2277e-07
5.22712e-07
5.22765e-07
6.13594e-07
6.12827e-07
5.22741e-07
5.22737e-07
5.22736e-07
6.12809e-07
6.13595e-07
6.12824e-07
5.22779e-07
5.22809e-07
5.22774e-07
5.22804e-07
6.13557e-07
6.12785e-07
5.22754e-07
5.2281e-07
5.22749e-07
5.22805e-07
5.2277e-07
5.22712e-07
5.22765e-07
6.13594e-07
6.12827e-07
5.2274e-07
5.22737e-07
5.22735e-07
6.12808e-07
6.13594e-07
6.12825e-07
5.22779e-07
5.2281e-07
5.22774e-07
5.22805e-07
6.13556e-07
6.12786e-07
5.22753e-07
5.22808e-07
5.22748e-07
5.22804e-07
5.2277e-07
5.22713e-07
5.22765e-07
6.13594e-07
6.12827e-07
5.2274e-07
5.22737e-07
5.22735e-07
6.12807e-07
6.13595e-07
6.12826e-07
5.22778e-07
5.22809e-07
5.22774e-07
5.22805e-07
6.13557e-07
6.12786e-07
5.22753e-07
5.22811e-07
5.22748e-07
5.22805e-07
5.2277e-07
5.22713e-07
5.22766e-07
6.13594e-07
6.12828e-07
5.2274e-07
5.22737e-07
5.22735e-07
6.12807e-07
6.13596e-07
6.12826e-07
5.2278e-07
5.2281e-07
5.22773e-07
5.22804e-07
6.13558e-07
6.12788e-07
5.22752e-07
5.22809e-07
5.22748e-07
5.22805e-07
5.22772e-07
5.22712e-07
5.22767e-07
6.13595e-07
6.12828e-07
5.22742e-07
5.22738e-07
5.22737e-07
6.12809e-07
6.13593e-07
6.12827e-07
5.22777e-07
5.22807e-07
5.22773e-07
5.22802e-07
6.13559e-07
6.1279e-07
5.22754e-07
5.22812e-07
5.22748e-07
5.22806e-07
5.22771e-07
5.2271e-07
5.22766e-07
6.13595e-07
6.12827e-07
5.22741e-07
5.22737e-07
5.22736e-07
6.12808e-07
6.13594e-07
6.12826e-07
5.22777e-07
5.22805e-07
5.22773e-07
5.228e-07
6.13559e-07
6.12789e-07
5.22752e-07
5.2281e-07
5.22749e-07
5.22805e-07
5.22771e-07
5.22709e-07
5.22766e-07
6.13594e-07
6.12828e-07
5.22741e-07
5.22738e-07
5.22736e-07
6.12807e-07
6.13594e-07
6.12826e-07
5.22779e-07
5.22805e-07
5.22774e-07
5.228e-07
6.13557e-07
6.12789e-07
5.22754e-07
5.22809e-07
5.22749e-07
5.22805e-07
5.2277e-07
5.22708e-07
5.22765e-07
6.13595e-07
6.12828e-07
5.2274e-07
5.22737e-07
5.22736e-07
6.12808e-07
6.13594e-07
6.12827e-07
5.2278e-07
5.22806e-07
5.22776e-07
5.22801e-07
6.13558e-07
6.12789e-07
5.22754e-07
5.22809e-07
5.2275e-07
5.22804e-07
5.2277e-07
5.22708e-07
5.22765e-07
6.13595e-07
6.12827e-07
5.2274e-07
5.22737e-07
5.22735e-07
6.12808e-07
6.13595e-07
6.12828e-07
5.22781e-07
5.22804e-07
5.22776e-07
5.228e-07
6.13558e-07
6.12789e-07
5.22755e-07
5.22808e-07
5.22749e-07
5.22804e-07
5.22769e-07
5.22709e-07
5.22764e-07
6.13594e-07
6.12827e-07
5.2274e-07
5.22736e-07
5.22735e-07
6.12808e-07
6.13596e-07
6.12829e-07
5.22781e-07
5.22806e-07
5.22777e-07
5.22801e-07
6.13558e-07
6.12791e-07
5.22753e-07
5.22809e-07
5.22749e-07
5.22805e-07
5.2277e-07
5.22709e-07
5.22764e-07
6.13593e-07
6.12827e-07
5.22739e-07
5.22737e-07
5.22734e-07
6.12807e-07
6.13596e-07
6.12829e-07
5.22782e-07
5.22805e-07
5.22778e-07
5.22801e-07
6.13559e-07
6.12791e-07
5.22754e-07
5.2281e-07
5.22749e-07
5.22805e-07
5.22769e-07
5.2271e-07
5.22765e-07
6.13594e-07
6.12827e-07
5.2274e-07
5.22739e-07
5.22735e-07
6.12806e-07
6.13597e-07
6.1283e-07
5.22783e-07
5.22807e-07
5.22779e-07
5.22802e-07
6.1356e-07
6.12792e-07
5.22752e-07
5.22808e-07
5.22748e-07
5.22804e-07
5.22771e-07
5.2271e-07
5.22765e-07
6.13594e-07
6.12827e-07
5.2274e-07
5.22738e-07
5.22735e-07
6.12807e-07
6.13597e-07
6.1283e-07
5.22783e-07
5.22806e-07
5.22779e-07
5.22801e-07
6.13561e-07
6.12792e-07
5.22753e-07
5.2281e-07
5.22747e-07
5.22804e-07
5.22769e-07
5.22709e-07
5.22765e-07
6.13594e-07
6.12827e-07
5.22741e-07
5.22737e-07
5.22736e-07
6.12809e-07
6.13598e-07
6.1283e-07
5.22786e-07
5.22806e-07
5.22781e-07
5.22802e-07
6.13561e-07
6.12792e-07
5.22751e-07
5.22808e-07
5.22747e-07
5.22804e-07
5.22771e-07
5.2271e-07
5.22766e-07
6.13594e-07
6.12827e-07
5.2274e-07
5.22737e-07
5.22736e-07
6.12807e-07
6.13598e-07
6.12831e-07
5.22785e-07
5.22806e-07
5.22781e-07
5.22802e-07
6.13561e-07
6.12793e-07
5.22751e-07
5.22808e-07
5.22747e-07
5.22803e-07
5.22771e-07
5.22711e-07
5.22767e-07
6.13594e-07
6.12826e-07
5.22742e-07
5.22737e-07
5.22736e-07
6.12807e-07
6.13599e-07
6.12831e-07
5.22786e-07
5.22808e-07
5.22781e-07
5.22803e-07
6.13562e-07
6.12794e-07
5.22752e-07
5.22808e-07
5.22747e-07
5.22804e-07
5.22771e-07
5.22711e-07
5.22766e-07
6.13593e-07
6.12826e-07
5.2274e-07
5.22737e-07
5.22735e-07
6.12809e-07
6.13599e-07
6.1283e-07
5.22785e-07
5.22807e-07
5.22781e-07
5.22802e-07
6.13563e-07
6.12794e-07
5.22751e-07
5.22809e-07
5.22746e-07
5.22804e-07
5.2277e-07
5.22713e-07
5.22765e-07
6.13593e-07
6.12827e-07
5.22739e-07
5.22736e-07
5.22734e-07
6.1281e-07
6.13598e-07
6.1283e-07
5.22786e-07
5.22808e-07
5.22781e-07
5.22802e-07
6.13563e-07
6.12794e-07
5.22752e-07
5.22809e-07
5.22746e-07
5.22805e-07
5.2277e-07
5.22711e-07
5.22764e-07
6.13593e-07
6.12827e-07
5.22739e-07
5.22736e-07
5.22733e-07
6.12809e-07
6.13597e-07
6.12831e-07
5.22784e-07
5.22806e-07
5.2278e-07
5.22802e-07
6.13563e-07
6.12794e-07
5.22751e-07
5.22809e-07
5.22747e-07
5.22805e-07
5.22768e-07
5.2271e-07
5.22763e-07
6.13594e-07
6.12827e-07
5.22737e-07
5.22736e-07
5.22732e-07
6.12807e-07
6.13599e-07
6.12831e-07
5.22786e-07
5.22809e-07
5.2278e-07
5.22803e-07
6.13563e-07
6.12794e-07
5.2275e-07
5.2281e-07
5.22746e-07
5.22805e-07
5.22768e-07
5.22709e-07
5.22764e-07
6.13594e-07
6.12827e-07
5.22735e-07
5.22737e-07
5.22731e-07
6.12805e-07
6.13599e-07
6.1283e-07
5.22784e-07
5.22807e-07
5.2278e-07
5.22803e-07
6.13562e-07
6.12794e-07
5.22751e-07
5.22809e-07
5.22746e-07
5.22804e-07
5.2277e-07
5.2271e-07
5.22764e-07
6.13594e-07
6.12828e-07
5.22736e-07
5.22737e-07
5.22732e-07
6.12804e-07
6.13598e-07
6.1283e-07
5.22786e-07
5.22808e-07
5.22781e-07
5.22802e-07
6.13563e-07
6.12794e-07
5.2275e-07
5.22808e-07
5.22746e-07
5.22804e-07
5.22768e-07
5.2271e-07
5.22764e-07
6.13595e-07
6.12827e-07
5.22737e-07
5.22737e-07
5.22732e-07
6.12806e-07
6.13598e-07
6.1283e-07
5.22784e-07
5.22806e-07
5.2278e-07
5.22802e-07
6.13562e-07
6.12793e-07
5.22751e-07
5.22808e-07
5.22746e-07
5.22804e-07
5.22771e-07
5.2271e-07
5.22765e-07
6.13594e-07
6.12826e-07
5.22739e-07
5.22737e-07
5.22734e-07
6.12805e-07
6.13598e-07
6.1283e-07
5.22785e-07
5.22806e-07
5.2278e-07
5.22802e-07
6.13562e-07
6.12793e-07
5.22749e-07
5.22808e-07
5.22745e-07
5.22804e-07
5.22769e-07
5.22709e-07
5.22764e-07
6.13593e-07
6.12827e-07
5.22739e-07
5.22738e-07
5.22733e-07
6.12805e-07
6.13598e-07
6.1283e-07
5.22784e-07
5.22808e-07
5.2278e-07
5.22802e-07
6.13562e-07
6.12792e-07
5.22751e-07
5.22808e-07
5.22745e-07
5.22804e-07
5.2277e-07
5.22709e-07
5.22764e-07
6.13594e-07
6.12827e-07
5.22737e-07
5.22737e-07
5.22732e-07
6.12808e-07
6.13598e-07
6.1283e-07
5.22787e-07
5.22806e-07
5.22781e-07
5.22802e-07
6.13561e-07
6.12793e-07
5.22749e-07
5.22809e-07
5.22745e-07
5.22804e-07
5.22768e-07
5.22708e-07
5.22765e-07
6.13594e-07
6.12826e-07
5.22738e-07
5.22737e-07
5.22733e-07
6.12806e-07
6.13598e-07
6.1283e-07
5.22784e-07
5.22806e-07
5.2278e-07
5.22801e-07
6.13562e-07
6.12793e-07
5.22751e-07
5.2281e-07
5.22746e-07
5.22806e-07
5.22771e-07
5.22708e-07
5.22765e-07
6.13593e-07
6.12827e-07
5.22738e-07
5.22737e-07
5.22733e-07
6.12806e-07
6.13598e-07
6.1283e-07
5.22786e-07
5.22807e-07
5.2278e-07
5.22801e-07
6.13561e-07
6.12792e-07
5.22749e-07
5.22809e-07
5.22745e-07
5.22804e-07
5.2277e-07
5.22708e-07
5.22765e-07
6.13594e-07
6.12828e-07
5.22738e-07
5.22737e-07
5.22733e-07
6.12809e-07
6.13598e-07
6.12831e-07
5.22784e-07
5.22805e-07
5.22781e-07
5.22801e-07
6.13561e-07
6.12792e-07
5.22751e-07
5.22808e-07
5.22745e-07
5.22804e-07
5.22769e-07
5.22708e-07
5.22764e-07
6.13595e-07
6.12827e-07
5.22737e-07
5.22736e-07
5.22732e-07
6.12808e-07
6.13599e-07
6.1283e-07
5.22784e-07
5.22807e-07
5.2278e-07
5.22801e-07
6.13561e-07
6.12792e-07
5.22749e-07
5.22809e-07
5.22745e-07
5.22804e-07
5.2277e-07
5.22709e-07
5.22764e-07
6.13594e-07
6.12826e-07
5.22737e-07
5.22737e-07
5.22733e-07
6.12804e-07
6.13598e-07
6.1283e-07
5.22786e-07
5.22805e-07
5.2278e-07
5.22802e-07
6.13561e-07
6.12792e-07
5.2275e-07
5.22808e-07
5.22745e-07
5.22804e-07
5.22769e-07
5.22709e-07
5.22765e-07
6.13592e-07
6.12827e-07
5.22739e-07
5.22737e-07
5.22733e-07
6.12806e-07
6.13598e-07
6.12829e-07
5.22784e-07
5.22807e-07
5.22781e-07
5.22802e-07
6.13561e-07
6.12793e-07
5.22749e-07
5.2281e-07
5.22745e-07
5.22804e-07
5.2277e-07
5.22709e-07
5.22765e-07
6.13593e-07
6.12826e-07
5.22737e-07
5.22736e-07
5.22733e-07
6.12809e-07
6.13597e-07
6.1283e-07
5.22787e-07
5.22807e-07
5.22781e-07
5.22802e-07
6.13562e-07
6.12794e-07
5.22752e-07
5.22808e-07
5.22747e-07
5.22804e-07
5.2277e-07
5.22709e-07
5.22765e-07
6.13594e-07
6.12827e-07
5.22738e-07
5.22736e-07
5.22732e-07
6.12808e-07
6.13598e-07
6.12831e-07
5.22785e-07
5.22806e-07
5.22781e-07
5.22802e-07
6.13562e-07
6.12793e-07
5.2275e-07
5.22811e-07
5.22746e-07
5.22805e-07
5.22769e-07
5.22709e-07
5.22764e-07
6.13593e-07
6.12828e-07
5.22736e-07
5.22737e-07
5.22732e-07
6.12806e-07
6.13598e-07
6.12831e-07
5.22787e-07
5.22807e-07
5.22781e-07
5.22802e-07
6.13562e-07
6.12792e-07
5.22752e-07
5.22808e-07
5.22747e-07
5.22804e-07
5.22769e-07
5.2271e-07
5.22765e-07
6.13594e-07
6.12828e-07
5.22737e-07
5.22739e-07
5.22732e-07
6.12806e-07
6.13599e-07
6.12831e-07
5.22785e-07
5.22807e-07
5.22781e-07
5.22802e-07
6.13561e-07
6.12794e-07
5.2275e-07
5.2281e-07
5.22746e-07
5.22804e-07
5.22769e-07
5.22711e-07
5.22765e-07
6.13594e-07
6.12827e-07
5.22737e-07
5.22737e-07
5.22733e-07
6.12807e-07
6.13599e-07
6.12831e-07
5.22785e-07
5.22806e-07
5.2278e-07
5.22802e-07
6.13563e-07
6.12793e-07
5.22751e-07
5.22808e-07
5.22745e-07
5.22804e-07
5.22771e-07
5.22711e-07
5.22765e-07
6.13594e-07
6.12827e-07
5.22738e-07
5.22737e-07
5.22733e-07
6.12807e-07
6.13599e-07
6.1283e-07
5.22786e-07
5.22807e-07
5.2278e-07
5.22802e-07
6.13562e-07
6.12793e-07
5.22749e-07
5.22808e-07
5.22745e-07
5.22804e-07
5.22769e-07
5.2271e-07
5.22765e-07
6.13594e-07
6.12827e-07
5.22737e-07
5.22736e-07
5.22732e-07
6.12808e-07
6.13598e-07
6.1283e-07
5.22784e-07
5.22806e-07
5.2278e-07
5.22802e-07
6.13562e-07
6.12793e-07
5.2275e-07
5.22809e-07
5.22745e-07
5.22804e-07
5.2277e-07
5.22711e-07
5.22765e-07
6.13594e-07
6.12827e-07
5.22737e-07
5.22736e-07
5.22733e-07
6.12806e-07
6.13598e-07
6.1283e-07
5.22786e-07
5.22808e-07
5.2278e-07
5.22803e-07
6.13561e-07
6.12793e-07
5.22749e-07
5.22808e-07
5.22745e-07
5.22804e-07
5.2277e-07
5.22712e-07
5.22766e-07
6.13593e-07
6.12826e-07
5.22738e-07
5.22737e-07
5.22733e-07
6.12805e-07
6.13598e-07
6.1283e-07
5.22784e-07
5.22806e-07
5.2278e-07
5.22802e-07
6.13562e-07
6.12794e-07
5.22749e-07
5.22808e-07
5.22744e-07
5.22803e-07
5.2277e-07
5.2271e-07
5.22766e-07
6.13593e-07
6.12827e-07
5.22738e-07
5.22738e-07
5.22734e-07
6.12808e-07
6.13598e-07
6.12829e-07
5.22786e-07
5.22807e-07
5.22781e-07
5.22802e-07
6.13562e-07
6.12793e-07
5.2275e-07
5.22809e-07
5.22745e-07
5.22804e-07
5.22772e-07
5.2271e-07
5.22766e-07
6.13594e-07
6.12827e-07
5.22739e-07
5.22739e-07
5.22733e-07
6.1281e-07
6.13598e-07
6.12829e-07
5.22784e-07
5.22806e-07
5.2278e-07
5.22801e-07
6.13562e-07
6.12793e-07
5.22749e-07
5.22808e-07
5.22745e-07
5.22803e-07
5.2277e-07
5.2271e-07
5.22765e-07
6.13594e-07
6.12826e-07
5.22737e-07
5.22738e-07
5.22732e-07
6.12808e-07
6.13597e-07
6.1283e-07
5.22786e-07
5.22806e-07
5.2278e-07
5.22801e-07
6.13562e-07
6.12793e-07
5.2275e-07
5.22808e-07
5.22744e-07
5.22804e-07
5.22769e-07
5.2271e-07
5.22763e-07
6.13593e-07
6.12828e-07
5.22737e-07
5.22739e-07
5.22731e-07
6.12806e-07
6.13598e-07
6.1283e-07
5.22785e-07
5.22806e-07
5.22779e-07
5.228e-07
6.13562e-07
6.12793e-07
5.22749e-07
5.22808e-07
5.22744e-07
5.22803e-07
5.22768e-07
5.22714e-07
5.22763e-07
6.13595e-07
6.12827e-07
5.22736e-07
5.22741e-07
5.22731e-07
6.12806e-07
6.13599e-07
6.12831e-07
5.22785e-07
5.22806e-07
5.2278e-07
5.22801e-07
6.13562e-07
6.12793e-07
5.2275e-07
5.22808e-07
5.22745e-07
5.22803e-07
5.22768e-07
5.22715e-07
5.22764e-07
6.13594e-07
6.12828e-07
5.22736e-07
5.22743e-07
5.22731e-07
6.12808e-07
6.13599e-07
6.1283e-07
5.22786e-07
5.22807e-07
5.22783e-07
5.22804e-07
6.13562e-07
6.12794e-07
5.22751e-07
5.22809e-07
5.22748e-07
5.22806e-07
5.2277e-07
5.22716e-07
5.22768e-07
6.13594e-07
6.12829e-07
5.22737e-07
5.22744e-07
5.22735e-07
6.12809e-07
6.13598e-07
6.12831e-07
5.22792e-07
5.22812e-07
5.22784e-07
5.22802e-07
6.13563e-07
6.12794e-07
5.22757e-07
5.22815e-07
5.22747e-07
5.22805e-07
5.22777e-07
5.22716e-07
5.22769e-07
6.13596e-07
6.1283e-07
5.22744e-07
5.22746e-07
5.22736e-07
6.12808e-07
6.13599e-07
6.12831e-07
5.22791e-07
5.22808e-07
5.22785e-07
5.22804e-07
6.13563e-07
6.12794e-07
5.22753e-07
5.22811e-07
5.22748e-07
5.22806e-07
5.22776e-07
5.22718e-07
5.22769e-07
6.13597e-07
6.12828e-07
5.22743e-07
5.22747e-07
5.22736e-07
6.12808e-07
6.13599e-07
6.1283e-07
5.22793e-07
5.22814e-07
5.22783e-07
5.22805e-07
6.13563e-07
6.12794e-07
5.22758e-07
5.22817e-07
5.22749e-07
5.22808e-07
5.22777e-07
5.22719e-07
5.22768e-07
6.13595e-07
6.12829e-07
5.22745e-07
5.22747e-07
5.22735e-07
6.12809e-07
6.13598e-07
6.1283e-07
5.22795e-07
5.22816e-07
5.22786e-07
5.22807e-07
6.13563e-07
6.12794e-07
5.2276e-07
5.22819e-07
5.22751e-07
5.22809e-07
5.2278e-07
5.2272e-07
5.22771e-07
6.13594e-07
6.1283e-07
5.22746e-07
5.22747e-07
5.22737e-07
6.12809e-07
6.13598e-07
6.1283e-07
5.22799e-07
5.22819e-07
5.22786e-07
5.22806e-07
6.13563e-07
6.12794e-07
5.22764e-07
5.22821e-07
5.22751e-07
5.22808e-07
5.22783e-07
5.22719e-07
5.2277e-07
6.13595e-07
6.12827e-07
5.22749e-07
5.22746e-07
5.22736e-07
6.12808e-07
6.13598e-07
6.12828e-07
5.228e-07
5.22821e-07
5.22783e-07
5.22804e-07
6.13563e-07
6.12793e-07
5.22765e-07
5.22822e-07
5.22748e-07
5.22805e-07
5.22784e-07
5.22716e-07
5.22766e-07
6.13593e-07
6.12826e-07
5.2275e-07
5.22743e-07
5.22733e-07
6.12806e-07
6.13595e-07
6.12824e-07
5.228e-07
5.22821e-07
5.22776e-07
5.22797e-07
6.13561e-07
6.12789e-07
5.22765e-07
5.22822e-07
5.22741e-07
5.22798e-07
5.22783e-07
5.22709e-07
5.22759e-07
6.1359e-07
6.12822e-07
5.2275e-07
5.22736e-07
5.22725e-07
6.12801e-07
6.1359e-07
6.12818e-07
5.22797e-07
5.22817e-07
5.22764e-07
5.22784e-07
6.13557e-07
6.12783e-07
5.22761e-07
5.22819e-07
5.22729e-07
5.22786e-07
5.22779e-07
5.22697e-07
5.22746e-07
6.13585e-07
6.12815e-07
5.22746e-07
5.22723e-07
5.22712e-07
6.12793e-07
6.13583e-07
6.12808e-07
5.22789e-07
5.22809e-07
5.2274e-07
5.22758e-07
6.13548e-07
6.12772e-07
5.22754e-07
5.22811e-07
5.22706e-07
5.22762e-07
5.22771e-07
5.22672e-07
5.22721e-07
6.13578e-07
6.12807e-07
5.22737e-07
5.22699e-07
5.22686e-07
6.12784e-07
6.13564e-07
6.12713e-07
5.22769e-07
5.22786e-07
5.2259e-07
5.22604e-07
6.1353e-07
6.1268e-07
5.22734e-07
5.22789e-07
5.22552e-07
5.22606e-07
5.2275e-07
5.22522e-07
5.22572e-07
6.1356e-07
6.12714e-07
5.22714e-07
5.22544e-07
5.2253e-07
6.12695e-07
6.13431e-07
6.05915e-07
5.2274e-07
5.22754e-07
5.16708e-07
5.16723e-07
6.134e-07
6.05894e-07
5.22702e-07
5.2276e-07
5.16687e-07
5.16711e-07
5.22725e-07
5.16665e-07
5.16687e-07
6.13428e-07
6.05908e-07
5.2268e-07
5.16671e-07
5.16662e-07
6.0588e-07
5.97891e-07
5.10824e-07
5.10836e-07
5.97877e-07
5.10809e-07
5.10824e-07
4.39237e-07
4.39234e-07
4.39229e-07
5.10802e-07
5.97885e-07
5.10785e-07
4.10073e-07
1.57434e-07
3.33746e-07
3.33389e-07
7.73896e-10
3.06006e-08
9.22326e-08
2.39589e-07
8.67114e-10
3.26854e-08
2.40074e-07
2.87064e-08
1.11351e-08
8.33943e-09
7.10586e-09
6.50138e-09
1.87247e-07
4.4906e-09
2.86037e-07
1.74095e-06
3.47027e-06
6.61758e-09
3.80662e-07
4.75407e-09
5.91234e-07
2.41194e-07
2.41628e-07
2.42744e-07
2.44687e-07
2.43689e-07
2.44325e-07
2.45348e-07
8.16949e-10
1.36461e-07
1.26059e-07
3.64521e-08
7.96093e-10
1.00715e-07
1.26083e-07
1.72973e-06
3.37504e-06
9.08062e-10
1.26772e-07
1.05534e-07
4.05215e-08
8.91055e-10
1.2705e-07
8.50492e-08
2.13018e-07
2.13789e-07
1.17827e-08
1.86621e-07
1.82334e-07
1.63131e-08
5.32069e-07
1.03505e-08
7.52515e-07
7.43406e-06
1.05702e-05
1.60145e-08
1.06893e-06
1.08458e-08
1.44895e-06
2.46033e-07
2.46717e-07
2.47698e-07
2.54504e-07
2.53254e-07
2.5406e-07
2.54869e-07
9.32587e-10