/*--------------------------------*- C++ -*----------------------------------*\
| =========                 |                                                 |
| \\      /  F ield         | OpenFOAM: The Open Source CFD Toolbox           |
|  \\    /   O peration     | Version:  v1906                                 |
|   \\  /    A nd           | Web:      www.OpenFOAM.com                      |
|    \\/     M anipulation  |                                                 |
\*---------------------------------------------------------------------------*/
FoamFile
{
    version     2.0;
    format      ascii;
    class       volScalarField;
    location    "62.5";
    object      k;
}
// * * * * * * * * * * * * * * * * * * * * * * * * * * * * * * * * * * * * * //

dimensions      [0 2 -2 0 0 0 0];


internalField   nonuniform List<scalar> 
171728
(
1.36903e-05
2.22732e-06
2.3257e-06
5.04257e-07
1.40019e-05
2.62031e-06
2.72856e-06
6.27281e-07
1.45452e-05
3.24911e-06
3.36145e-06
9.50052e-07
1.50702e-05
4.03297e-06
4.12068e-06
1.4558e-06
1.5589e-05
4.96837e-06
5.02588e-06
2.03849e-06
1.60996e-05
6.04968e-06
6.12726e-06
2.77289e-06
1.65996e-05
7.35121e-06
7.42563e-06
3.79001e-06
1.71609e-05
8.90658e-06
8.94875e-06
5.15943e-06
1.78464e-05
1.07137e-05
1.07355e-05
6.98801e-06
1.86647e-05
1.26784e-05
1.26966e-05
9.28203e-06
1.97283e-05
1.49368e-05
1.49406e-05
1.19878e-05
2.0931e-05
1.73607e-05
1.7369e-05
1.52151e-05
2.22801e-05
2.0128e-05
2.0134e-05
1.90088e-05
2.32871e-05
2.25059e-05
2.25076e-05
2.25279e-05
2.41924e-05
2.47366e-05
2.47373e-05
2.56129e-05
2.47728e-05
2.60431e-05
2.60436e-05
2.73346e-05
2.49575e-05
2.63891e-05
2.63896e-05
2.7703e-05
2.49908e-05
2.64405e-05
2.6441e-05
2.77445e-05
2.49957e-05
2.64476e-05
2.64481e-05
2.77521e-05
2.49967e-05
2.64489e-05
2.64495e-05
2.77521e-05
2.49972e-05
2.64494e-05
2.64499e-05
2.77526e-05
2.49976e-05
2.64497e-05
2.64502e-05
2.7753e-05
2.4998e-05
2.64501e-05
2.64506e-05
2.7753e-05
2.49982e-05
2.64505e-05
2.64509e-05
2.77531e-05
2.49983e-05
2.64504e-05
2.64509e-05
2.77533e-05
2.49983e-05
2.64504e-05
2.64509e-05
2.77532e-05
2.49984e-05
2.64504e-05
2.64509e-05
2.77532e-05
2.49984e-05
2.64505e-05
2.64509e-05
2.77533e-05
2.49984e-05
2.64505e-05
2.64509e-05
2.77534e-05
2.49983e-05
2.64505e-05
2.6451e-05
2.77534e-05
2.49985e-05
2.64506e-05
2.64509e-05
2.77535e-05
2.49984e-05
2.64505e-05
2.64508e-05
2.77535e-05
2.49984e-05
2.64504e-05
2.64508e-05
2.77534e-05
2.49984e-05
2.64504e-05
2.64508e-05
2.77535e-05
2.49985e-05
2.64504e-05
2.64509e-05
2.77535e-05
2.49984e-05
2.64505e-05
2.64509e-05
2.77535e-05
2.49984e-05
2.64506e-05
2.64509e-05
2.77535e-05
2.49984e-05
2.64505e-05
2.64509e-05
2.77534e-05
2.49985e-05
2.64506e-05
2.64509e-05
2.77534e-05
2.49985e-05
2.64505e-05
2.64509e-05
2.77534e-05
2.49984e-05
2.64505e-05
2.64509e-05
2.77535e-05
2.49983e-05
2.64504e-05
2.64508e-05
2.77535e-05
2.49984e-05
2.64504e-05
2.64508e-05
2.77534e-05
2.49984e-05
2.64504e-05
2.64508e-05
2.77534e-05
2.49985e-05
2.64505e-05
2.64508e-05
2.77535e-05
2.49984e-05
2.64505e-05
2.64508e-05
2.77535e-05
2.49984e-05
2.64505e-05
2.64509e-05
2.77534e-05
2.49984e-05
2.64506e-05
2.64509e-05
2.77533e-05
2.49984e-05
2.64506e-05
2.64509e-05
2.77534e-05
2.49983e-05
2.64505e-05
2.64508e-05
2.77534e-05
2.49985e-05
2.64506e-05
2.64509e-05
2.77534e-05
2.49984e-05
2.64506e-05
2.64509e-05
2.77534e-05
2.49984e-05
2.64506e-05
2.64508e-05
2.77535e-05
2.49983e-05
2.64506e-05
2.64508e-05
2.77535e-05
2.49983e-05
2.64506e-05
2.64508e-05
2.77535e-05
2.49983e-05
2.64505e-05
2.64508e-05
2.77534e-05
2.49983e-05
2.64505e-05
2.64508e-05
2.77533e-05
2.49982e-05
2.64505e-05
2.64509e-05
2.77533e-05
2.49982e-05
2.64506e-05
2.64508e-05
2.77533e-05
2.49982e-05
2.64505e-05
2.64509e-05
2.77533e-05
2.49981e-05
2.64504e-05
2.64509e-05
2.77533e-05
2.49981e-05
2.64504e-05
2.64508e-05
2.77534e-05
2.49981e-05
2.64504e-05
2.64508e-05
2.77533e-05
2.49982e-05
2.64504e-05
2.64508e-05
2.77533e-05
2.49983e-05
2.64504e-05
2.64508e-05
2.77535e-05
2.49983e-05
2.64504e-05
2.64508e-05
2.77535e-05
2.49983e-05
2.64504e-05
2.64508e-05
2.77533e-05
2.49984e-05
2.64505e-05
2.64508e-05
2.77533e-05
2.49985e-05
2.64505e-05
2.64508e-05
2.77535e-05
2.49984e-05
2.64505e-05
2.64508e-05
2.77535e-05
2.49984e-05
2.64505e-05
2.64509e-05
2.77533e-05
2.49983e-05
2.64505e-05
2.64509e-05
2.77533e-05
2.49982e-05
2.64506e-05
2.64509e-05
2.77534e-05
2.49982e-05
2.64506e-05
2.64508e-05
2.77534e-05
2.49981e-05
2.64505e-05
2.64508e-05
2.77535e-05
2.49982e-05
2.64506e-05
2.64508e-05
2.77534e-05
2.49982e-05
2.64506e-05
2.64508e-05
2.77533e-05
2.49983e-05
2.64505e-05
2.64509e-05
2.77534e-05
2.49984e-05
2.64506e-05
2.6451e-05
2.77535e-05
2.49984e-05
2.64506e-05
2.64509e-05
2.77535e-05
2.49984e-05
2.64505e-05
2.64509e-05
2.77533e-05
2.49986e-05
2.64506e-05
2.6451e-05
2.77533e-05
2.49986e-05
2.64507e-05
2.64511e-05
2.77534e-05
2.49986e-05
2.64508e-05
2.64511e-05
2.77535e-05
2.49987e-05
2.64508e-05
2.64511e-05
2.77535e-05
2.49986e-05
2.64508e-05
2.64512e-05
2.77534e-05
2.49987e-05
2.64509e-05
2.64512e-05
2.77535e-05
2.49987e-05
2.64509e-05
2.64512e-05
2.77535e-05
2.49988e-05
2.6451e-05
2.64513e-05
2.77536e-05
2.49988e-05
2.64512e-05
2.64515e-05
2.77536e-05
2.49989e-05
2.64513e-05
2.64516e-05
2.77536e-05
2.4999e-05
2.64516e-05
2.64519e-05
2.77537e-05
2.49991e-05
2.64519e-05
2.64521e-05
2.77538e-05
2.49989e-05
2.64507e-05
2.64509e-05
2.7752e-05
2.49661e-05
2.6222e-05
2.62219e-05
2.75329e-05
6.73861e-07
2.09903e-06
1.94681e-06
5.2714e-07
1.79895e-06
1.8117e-06
1.38189e-05
1.37954e-05
1.38002e-05
1.38334e-05
1.80214e-06
1.81424e-06
5.34896e-07
1.83875e-06
1.82942e-06
5.07406e-07
6.70988e-07
8.13325e-07
2.53707e-06
2.6692e-06
2.81269e-06
2.91644e-06
5.23806e-07
6.55102e-07
2.251e-06
2.26686e-06
2.42899e-06
2.49613e-06
2.37985e-06
2.48821e-06
2.65887e-06
5.31671e-07
6.58336e-07
2.39838e-06
2.59597e-06
2.68354e-06
6.22724e-07
8.189e-07
1.08798e-06
2.95244e-06
3.03227e-06
3.4191e-06
3.35666e-06
6.60584e-07
9.58773e-07
2.54555e-06
2.61645e-06
2.99168e-06
3.04347e-06
2.79888e-06
3.08296e-06
3.27006e-06
6.63201e-07
9.4893e-07
2.82559e-06
3.19505e-06
3.30147e-06
9.31028e-07
1.10095e-06
1.51739e-06
3.58655e-06
3.45749e-06
4.15299e-06
3.83925e-06
9.77204e-07
1.42558e-06
3.15486e-06
3.20863e-06
3.72398e-06
3.78139e-06
3.44038e-06
3.82445e-06
4.03289e-06
9.66681e-07
1.42835e-06
3.47534e-06
3.92432e-06
4.06943e-06
1.42757e-06
1.54245e-06
2.08052e-06
4.35186e-06
3.99736e-06
4.99745e-06
4.61888e-06
1.45331e-06
1.99843e-06
3.93455e-06
3.98761e-06
4.6263e-06
4.67966e-06
4.24126e-06
4.71578e-06
4.90539e-06
1.45736e-06
2.01454e-06
4.28319e-06
4.77916e-06
4.96134e-06
2.0084e-06
2.11146e-06
2.78079e-06
5.23048e-06
4.8663e-06
5.96945e-06
5.67957e-06
2.03189e-06
2.73915e-06
4.87548e-06
4.93339e-06
5.67574e-06
5.73602e-06
5.14957e-06
5.76516e-06
5.89039e-06
2.04742e-06
2.75169e-06
5.20075e-06
5.83124e-06
5.95805e-06
2.72395e-06
2.82922e-06
3.78445e-06
6.24758e-06
5.97936e-06
7.16605e-06
6.95193e-06
2.79043e-06
3.76149e-06
5.97011e-06
6.02814e-06
6.92722e-06
6.97541e-06
6.1526e-06
6.99801e-06
7.00964e-06
2.80268e-06
3.77141e-06
6.22583e-06
7.07741e-06
7.09243e-06
3.71818e-06
3.85793e-06
5.12544e-06
7.50661e-06
7.31122e-06
8.61767e-06
8.4632e-06
3.83416e-06
5.10363e-06
7.28514e-06
7.33157e-06
8.44728e-06
8.49077e-06
7.33184e-06
8.51032e-06
8.43203e-06
3.8454e-06
5.12155e-06
7.41571e-06
8.55769e-06
8.47582e-06
5.05298e-06
5.2287e-06
6.86592e-06
9.00631e-06
8.87215e-06
1.02674e-05
1.01947e-05
5.2092e-06
6.8589e-06
8.85372e-06
8.89592e-06
1.01869e-05
1.02233e-05
8.84181e-06
1.02243e-05
1.0215e-05
5.22644e-06
6.87618e-06
8.875e-06
1.02575e-05
1.0228e-05
6.84256e-06
7.00617e-06
9.06835e-06
1.07373e-05
1.06782e-05
1.21898e-05
1.21469e-05
7.00079e-06
9.07257e-06
1.06753e-05
1.07083e-05
1.21432e-05
1.21592e-05
1.07117e-05
1.21735e-05
1.21771e-05
7.01772e-06
9.08044e-06
1.07221e-05
1.21882e-05
1.21919e-05
9.09963e-06
9.24937e-06
1.16647e-05
1.26965e-05
1.26617e-05
1.43635e-05
1.43444e-05
9.25328e-06
1.16675e-05
1.26574e-05
1.2668e-05
1.43474e-05
1.43459e-05
1.26845e-05
1.4353e-05
1.43511e-05
9.26102e-06
1.16705e-05
1.2698e-05
1.43609e-05
1.4358e-05
1.16774e-05
1.19827e-05
1.47607e-05
1.49478e-05
1.49291e-05
1.6729e-05
1.67118e-05
1.19827e-05
1.47475e-05
1.49348e-05
1.49317e-05
1.6719e-05
1.67199e-05
1.49332e-05
1.67202e-05
1.67123e-05
1.19842e-05
1.47597e-05
1.49395e-05
1.67266e-05
1.67181e-05
1.47462e-05
1.52301e-05
1.84353e-05
1.73685e-05
1.73544e-05
1.94414e-05
1.94366e-05
1.52179e-05
1.8433e-05
1.73605e-05
1.73634e-05
1.94397e-05
1.94437e-05
1.73542e-05
1.94405e-05
1.94355e-05
1.52332e-05
1.84467e-05
1.73595e-05
1.94481e-05
1.94385e-05
1.84307e-05
1.9014e-05
2.20293e-05
2.01287e-05
2.01259e-05
2.19409e-05
2.19405e-05
1.90126e-05
2.20292e-05
2.01283e-05
2.01314e-05
2.19415e-05
2.19423e-05
2.01248e-05
2.19419e-05
2.19399e-05
1.90243e-05
2.20321e-05
2.01271e-05
2.19442e-05
2.19408e-05
2.20287e-05
2.25295e-05
2.51702e-05
2.25057e-05
2.25056e-05
2.42195e-05
2.42196e-05
2.25295e-05
2.51702e-05
2.25062e-05
2.25068e-05
2.42194e-05
2.42199e-05
2.25051e-05
2.42198e-05
2.42194e-05
2.25316e-05
2.51712e-05
2.25058e-05
2.42206e-05
2.42195e-05
2.51706e-05
2.56135e-05
2.71611e-05
2.47371e-05
2.47373e-05
2.58342e-05
2.58345e-05
2.56134e-05
2.71607e-05
2.47369e-05
2.47374e-05
2.58339e-05
2.58344e-05
2.47371e-05
2.5834e-05
2.58344e-05
2.5614e-05
2.71612e-05
2.4737e-05
2.58345e-05
2.58342e-05
2.71614e-05
2.73347e-05
2.76724e-05
2.60439e-05
2.60441e-05
2.63513e-05
2.63513e-05
2.73342e-05
2.76716e-05
2.60436e-05
2.6044e-05
2.6351e-05
2.63512e-05
2.60442e-05
2.63506e-05
2.63516e-05
2.73345e-05
2.7672e-05
2.60439e-05
2.63511e-05
2.63513e-05
2.76728e-05
2.77028e-05
2.77318e-05
2.63902e-05
2.63902e-05
2.64366e-05
2.64364e-05
2.7702e-05
2.77309e-05
2.63898e-05
2.639e-05
2.64362e-05
2.64363e-05
2.63904e-05
2.64356e-05
2.64366e-05
2.77024e-05
2.77312e-05
2.63902e-05
2.64361e-05
2.64364e-05
2.77319e-05
2.77448e-05
2.7742e-05
2.64417e-05
2.64416e-05
2.6448e-05
2.64478e-05
2.77438e-05
2.7741e-05
2.64414e-05
2.64414e-05
2.64476e-05
2.64476e-05
2.64417e-05
2.64469e-05
2.64477e-05
2.77441e-05
2.77413e-05
2.64415e-05
2.64474e-05
2.64475e-05
2.77417e-05
2.77527e-05
2.77431e-05
2.64489e-05
2.64487e-05
2.645e-05
2.64498e-05
2.77517e-05
2.77421e-05
2.64485e-05
2.64485e-05
2.64496e-05
2.64496e-05
2.64485e-05
2.64488e-05
2.64493e-05
2.7752e-05
2.77424e-05
2.64482e-05
2.64493e-05
2.64491e-05
2.7742e-05
2.77534e-05
2.77435e-05
2.64502e-05
2.645e-05
2.64505e-05
2.64503e-05
2.77524e-05
2.77426e-05
2.64498e-05
2.64498e-05
2.64501e-05
2.64501e-05
2.64495e-05
2.64493e-05
2.64498e-05
2.77527e-05
2.77429e-05
2.64492e-05
2.64498e-05
2.64495e-05
2.77424e-05
2.77538e-05
2.77439e-05
2.64507e-05
2.64505e-05
2.6451e-05
2.64508e-05
2.77529e-05
2.77429e-05
2.64503e-05
2.64503e-05
2.64505e-05
2.64506e-05
2.64499e-05
2.64497e-05
2.64502e-05
2.77531e-05
2.77432e-05
2.64497e-05
2.64502e-05
2.645e-05
2.77429e-05
2.77542e-05
2.77442e-05
2.64512e-05
2.6451e-05
2.64514e-05
2.64513e-05
2.77533e-05
2.77434e-05
2.64507e-05
2.64508e-05
2.6451e-05
2.64511e-05
2.64505e-05
2.645e-05
2.64507e-05
2.77534e-05
2.77435e-05
2.64502e-05
2.64505e-05
2.64504e-05
2.77428e-05
2.77544e-05
2.77441e-05
2.64516e-05
2.64515e-05
2.64516e-05
2.64516e-05
2.77537e-05
2.77433e-05
2.64512e-05
2.64513e-05
2.64512e-05
2.64513e-05
2.64508e-05
2.64504e-05
2.64507e-05
2.77538e-05
2.77434e-05
2.64506e-05
2.64509e-05
2.64505e-05
2.7743e-05
2.77544e-05
2.77439e-05
2.64517e-05
2.64518e-05
2.64516e-05
2.64516e-05
2.77537e-05
2.77432e-05
2.64513e-05
2.64514e-05
2.64512e-05
2.64513e-05
2.64508e-05
2.64505e-05
2.64507e-05
2.77538e-05
2.77433e-05
2.64506e-05
2.64509e-05
2.64505e-05
2.7743e-05
2.77542e-05
2.77439e-05
2.64517e-05
2.64517e-05
2.64515e-05
2.64516e-05
2.77535e-05
2.77433e-05
2.64513e-05
2.64514e-05
2.64512e-05
2.64513e-05
2.64508e-05
2.64504e-05
2.64507e-05
2.77536e-05
2.77434e-05
2.64506e-05
2.64509e-05
2.64504e-05
2.77427e-05
2.77542e-05
2.7744e-05
2.64516e-05
2.64517e-05
2.64515e-05
2.64516e-05
2.77535e-05
2.77433e-05
2.64513e-05
2.64514e-05
2.64512e-05
2.64513e-05
2.64508e-05
2.64504e-05
2.64507e-05
2.77536e-05
2.77435e-05
2.64506e-05
2.6451e-05
2.64504e-05
2.77427e-05
2.77542e-05
2.7744e-05
2.64516e-05
2.64517e-05
2.64515e-05
2.64516e-05
2.77536e-05
2.77433e-05
2.64513e-05
2.64514e-05
2.64512e-05
2.64513e-05
2.64508e-05
2.64505e-05
2.64507e-05
2.77537e-05
2.77434e-05
2.64506e-05
2.64509e-05
2.64505e-05
2.77427e-05
2.77543e-05
2.7744e-05
2.64516e-05
2.64517e-05
2.64515e-05
2.64516e-05
2.77536e-05
2.77433e-05
2.64514e-05
2.64514e-05
2.64512e-05
2.64513e-05
2.64508e-05
2.64505e-05
2.64507e-05
2.77536e-05
2.77435e-05
2.64506e-05
2.64509e-05
2.64505e-05
2.77426e-05
2.77543e-05
2.7744e-05
2.64516e-05
2.64517e-05
2.64515e-05
2.64516e-05
2.77535e-05
2.77433e-05
2.64514e-05
2.64514e-05
2.64513e-05
2.64513e-05
2.64508e-05
2.64505e-05
2.64507e-05
2.77537e-05
2.77435e-05
2.64507e-05
2.6451e-05
2.64505e-05
2.77426e-05
2.77542e-05
2.7744e-05
2.64516e-05
2.64517e-05
2.64515e-05
2.64516e-05
2.77536e-05
2.77433e-05
2.64514e-05
2.64514e-05
2.64513e-05
2.64513e-05
2.64508e-05
2.64506e-05
2.64507e-05
2.77537e-05
2.77435e-05
2.64506e-05
2.6451e-05
2.64505e-05
2.77428e-05
2.77542e-05
2.7744e-05
2.64516e-05
2.64517e-05
2.64514e-05
2.64516e-05
2.77536e-05
2.77433e-05
2.64515e-05
2.64514e-05
2.64514e-05
2.64513e-05
2.64508e-05
2.64505e-05
2.64507e-05
2.77537e-05
2.77435e-05
2.64506e-05
2.64509e-05
2.64505e-05
2.77427e-05
2.77543e-05
2.77441e-05
2.64516e-05
2.64518e-05
2.64514e-05
2.64516e-05
2.77535e-05
2.77433e-05
2.64515e-05
2.64514e-05
2.64514e-05
2.64513e-05
2.64508e-05
2.64505e-05
2.64507e-05
2.77537e-05
2.77434e-05
2.64506e-05
2.64508e-05
2.64505e-05
2.77427e-05
2.77543e-05
2.7744e-05
2.64516e-05
2.64517e-05
2.64514e-05
2.64516e-05
2.77535e-05
2.77432e-05
2.64515e-05
2.64514e-05
2.64514e-05
2.64513e-05
2.64509e-05
2.64504e-05
2.64507e-05
2.77536e-05
2.77434e-05
2.64506e-05
2.64508e-05
2.64505e-05
2.77428e-05
2.77543e-05
2.77439e-05
2.64515e-05
2.64517e-05
2.64514e-05
2.64516e-05
2.77535e-05
2.77432e-05
2.64515e-05
2.64514e-05
2.64514e-05
2.64513e-05
2.64509e-05
2.64504e-05
2.64507e-05
2.77536e-05
2.77435e-05
2.64506e-05
2.64509e-05
2.64505e-05
2.77428e-05
2.77542e-05
2.7744e-05
2.64515e-05
2.64518e-05
2.64514e-05
2.64516e-05
2.77535e-05
2.77433e-05
2.64515e-05
2.64514e-05
2.64513e-05
2.64513e-05
2.64509e-05
2.64505e-05
2.64507e-05
2.77537e-05
2.77435e-05
2.64506e-05
2.6451e-05
2.64505e-05
2.77428e-05
2.77542e-05
2.7744e-05
2.64515e-05
2.64518e-05
2.64514e-05
2.64516e-05
2.77535e-05
2.77433e-05
2.64515e-05
2.64514e-05
2.64513e-05
2.64513e-05
2.64509e-05
2.64506e-05
2.64507e-05
2.77537e-05
2.77435e-05
2.64506e-05
2.64509e-05
2.64505e-05
2.77428e-05
2.77543e-05
2.7744e-05
2.64515e-05
2.64518e-05
2.64514e-05
2.64516e-05
2.77536e-05
2.77433e-05
2.64515e-05
2.64514e-05
2.64514e-05
2.64513e-05
2.64508e-05
2.64505e-05
2.64507e-05
2.77537e-05
2.77434e-05
2.64506e-05
2.64509e-05
2.64505e-05
2.77427e-05
2.77543e-05
2.7744e-05
2.64515e-05
2.64518e-05
2.64514e-05
2.64516e-05
2.77536e-05
2.77433e-05
2.64515e-05
2.64514e-05
2.64514e-05
2.64513e-05
2.64508e-05
2.64506e-05
2.64507e-05
2.77537e-05
2.77435e-05
2.64506e-05
2.64509e-05
2.64505e-05
2.77426e-05
2.77543e-05
2.77441e-05
2.64515e-05
2.64518e-05
2.64514e-05
2.64517e-05
2.77536e-05
2.77433e-05
2.64515e-05
2.64514e-05
2.64514e-05
2.64513e-05
2.64508e-05
2.64506e-05
2.64507e-05
2.77536e-05
2.77435e-05
2.64506e-05
2.64509e-05
2.64505e-05
2.77427e-05
2.77543e-05
2.7744e-05
2.64515e-05
2.64518e-05
2.64514e-05
2.64517e-05
2.77536e-05
2.77434e-05
2.64515e-05
2.64514e-05
2.64514e-05
2.64513e-05
2.64508e-05
2.64505e-05
2.64507e-05
2.77537e-05
2.77435e-05
2.64506e-05
2.64509e-05
2.64505e-05
2.77427e-05
2.77543e-05
2.7744e-05
2.64515e-05
2.64518e-05
2.64514e-05
2.64517e-05
2.77536e-05
2.77433e-05
2.64515e-05
2.64514e-05
2.64514e-05
2.64513e-05
2.64508e-05
2.64505e-05
2.64507e-05
2.77537e-05
2.77435e-05
2.64506e-05
2.64509e-05
2.64505e-05
2.77427e-05
2.77543e-05
2.7744e-05
2.64515e-05
2.64518e-05
2.64514e-05
2.64516e-05
2.77536e-05
2.77433e-05
2.64515e-05
2.64515e-05
2.64514e-05
2.64514e-05
2.64509e-05
2.64504e-05
2.64507e-05
2.77537e-05
2.77435e-05
2.64506e-05
2.64509e-05
2.64505e-05
2.77427e-05
2.77542e-05
2.7744e-05
2.64515e-05
2.64517e-05
2.64514e-05
2.64516e-05
2.77535e-05
2.77433e-05
2.64515e-05
2.64515e-05
2.64513e-05
2.64514e-05
2.64508e-05
2.64504e-05
2.64507e-05
2.77537e-05
2.77435e-05
2.64506e-05
2.64508e-05
2.64505e-05
2.77427e-05
2.77542e-05
2.7744e-05
2.64515e-05
2.64517e-05
2.64514e-05
2.64516e-05
2.77535e-05
2.77433e-05
2.64515e-05
2.64515e-05
2.64513e-05
2.64513e-05
2.64508e-05
2.64505e-05
2.64507e-05
2.77537e-05
2.77435e-05
2.64506e-05
2.64508e-05
2.64505e-05
2.77427e-05
2.77543e-05
2.7744e-05
2.64516e-05
2.64517e-05
2.64515e-05
2.64516e-05
2.77535e-05
2.77433e-05
2.64515e-05
2.64514e-05
2.64513e-05
2.64513e-05
2.64508e-05
2.64505e-05
2.64507e-05
2.77537e-05
2.77434e-05
2.64506e-05
2.64508e-05
2.64505e-05
2.77427e-05
2.77543e-05
2.77441e-05
2.64516e-05
2.64517e-05
2.64515e-05
2.64516e-05
2.77535e-05
2.77434e-05
2.64515e-05
2.64514e-05
2.64513e-05
2.64513e-05
2.64508e-05
2.64505e-05
2.64507e-05
2.77536e-05
2.77434e-05
2.64506e-05
2.64509e-05
2.64505e-05
2.77426e-05
2.77543e-05
2.77441e-05
2.64516e-05
2.64517e-05
2.64515e-05
2.64516e-05
2.77536e-05
2.77434e-05
2.64515e-05
2.64514e-05
2.64514e-05
2.64513e-05
2.64508e-05
2.64506e-05
2.64506e-05
2.77536e-05
2.77434e-05
2.64506e-05
2.64509e-05
2.64504e-05
2.77426e-05
2.77543e-05
2.77441e-05
2.64517e-05
2.64517e-05
2.64515e-05
2.64516e-05
2.77536e-05
2.77434e-05
2.64515e-05
2.64514e-05
2.64514e-05
2.64513e-05
2.64508e-05
2.64506e-05
2.64507e-05
2.77537e-05
2.77435e-05
2.64505e-05
2.64509e-05
2.64504e-05
2.77426e-05
2.77543e-05
2.77441e-05
2.64517e-05
2.64517e-05
2.64516e-05
2.64516e-05
2.77537e-05
2.77434e-05
2.64515e-05
2.64514e-05
2.64513e-05
2.64513e-05
2.64508e-05
2.64505e-05
2.64507e-05
2.77537e-05
2.77435e-05
2.64506e-05
2.64508e-05
2.64505e-05
2.77427e-05
2.77543e-05
2.77441e-05
2.64517e-05
2.64517e-05
2.64516e-05
2.64516e-05
2.77537e-05
2.77434e-05
2.64514e-05
2.64514e-05
2.64513e-05
2.64513e-05
2.64508e-05
2.64506e-05
2.64507e-05
2.77536e-05
2.77434e-05
2.64506e-05
2.64509e-05
2.64505e-05
2.77426e-05
2.77544e-05
2.77442e-05
2.64518e-05
2.64517e-05
2.64517e-05
2.64516e-05
2.77537e-05
2.77434e-05
2.64514e-05
2.64514e-05
2.64513e-05
2.64513e-05
2.64508e-05
2.64506e-05
2.64507e-05
2.77536e-05
2.77434e-05
2.64506e-05
2.64509e-05
2.64505e-05
2.77427e-05
2.77544e-05
2.77442e-05
2.64518e-05
2.64517e-05
2.64517e-05
2.64517e-05
2.77537e-05
2.77435e-05
2.64514e-05
2.64514e-05
2.64513e-05
2.64513e-05
2.64508e-05
2.64506e-05
2.64507e-05
2.77536e-05
2.77434e-05
2.64506e-05
2.64508e-05
2.64505e-05
2.77428e-05
2.77544e-05
2.77441e-05
2.64518e-05
2.64518e-05
2.64517e-05
2.64517e-05
2.77537e-05
2.77435e-05
2.64514e-05
2.64514e-05
2.64513e-05
2.64513e-05
2.64509e-05
2.64507e-05
2.64507e-05
2.77536e-05
2.77434e-05
2.64506e-05
2.64508e-05
2.64505e-05
2.77428e-05
2.77544e-05
2.77441e-05
2.64518e-05
2.64518e-05
2.64517e-05
2.64517e-05
2.77537e-05
2.77435e-05
2.64514e-05
2.64514e-05
2.64513e-05
2.64513e-05
2.64508e-05
2.64506e-05
2.64507e-05
2.77536e-05
2.77434e-05
2.64506e-05
2.64508e-05
2.64504e-05
2.77427e-05
2.77543e-05
2.77441e-05
2.64518e-05
2.64518e-05
2.64517e-05
2.64517e-05
2.77537e-05
2.77435e-05
2.64514e-05
2.64514e-05
2.64513e-05
2.64513e-05
2.64508e-05
2.64505e-05
2.64506e-05
2.77536e-05
2.77434e-05
2.64505e-05
2.64508e-05
2.64504e-05
2.77426e-05
2.77544e-05
2.77441e-05
2.64518e-05
2.64518e-05
2.64517e-05
2.64517e-05
2.77537e-05
2.77435e-05
2.64514e-05
2.64514e-05
2.64512e-05
2.64513e-05
2.64507e-05
2.64505e-05
2.64506e-05
2.77536e-05
2.77434e-05
2.64504e-05
2.64508e-05
2.64503e-05
2.77425e-05
2.77544e-05
2.77441e-05
2.64518e-05
2.64518e-05
2.64516e-05
2.64517e-05
2.77537e-05
2.77435e-05
2.64514e-05
2.64514e-05
2.64512e-05
2.64513e-05
2.64507e-05
2.64505e-05
2.64506e-05
2.77536e-05
2.77435e-05
2.64504e-05
2.64509e-05
2.64503e-05
2.77425e-05
2.77543e-05
2.77441e-05
2.64517e-05
2.64518e-05
2.64516e-05
2.64517e-05
2.77537e-05
2.77435e-05
2.64513e-05
2.64514e-05
2.64512e-05
2.64513e-05
2.64508e-05
2.64506e-05
2.64506e-05
2.77537e-05
2.77434e-05
2.64504e-05
2.64509e-05
2.64503e-05
2.77426e-05
2.77543e-05
2.77441e-05
2.64517e-05
2.64518e-05
2.64516e-05
2.64517e-05
2.77537e-05
2.77435e-05
2.64513e-05
2.64514e-05
2.64512e-05
2.64513e-05
2.64507e-05
2.64505e-05
2.64506e-05
2.77536e-05
2.77434e-05
2.64504e-05
2.64509e-05
2.64503e-05
2.77425e-05
2.77543e-05
2.77441e-05
2.64517e-05
2.64518e-05
2.64516e-05
2.64517e-05
2.77537e-05
2.77434e-05
2.64513e-05
2.64514e-05
2.64512e-05
2.64513e-05
2.64508e-05
2.64504e-05
2.64507e-05
2.77536e-05
2.77434e-05
2.64505e-05
2.6451e-05
2.64504e-05
2.77425e-05
2.77543e-05
2.77441e-05
2.64517e-05
2.64518e-05
2.64516e-05
2.64517e-05
2.77537e-05
2.77434e-05
2.64513e-05
2.64514e-05
2.64512e-05
2.64513e-05
2.64508e-05
2.64505e-05
2.64507e-05
2.77536e-05
2.77434e-05
2.64505e-05
2.64509e-05
2.64504e-05
2.77427e-05
2.77543e-05
2.77441e-05
2.64517e-05
2.64518e-05
2.64516e-05
2.64517e-05
2.77537e-05
2.77434e-05
2.64513e-05
2.64514e-05
2.64512e-05
2.64513e-05
2.64508e-05
2.64504e-05
2.64506e-05
2.77536e-05
2.77434e-05
2.64505e-05
2.64508e-05
2.64503e-05
2.77426e-05
2.77543e-05
2.77441e-05
2.64517e-05
2.64518e-05
2.64516e-05
2.64517e-05
2.77537e-05
2.77434e-05
2.64513e-05
2.64514e-05
2.64512e-05
2.64513e-05
2.64507e-05
2.64504e-05
2.64507e-05
2.77536e-05
2.77434e-05
2.64504e-05
2.64508e-05
2.64503e-05
2.77426e-05
2.77543e-05
2.77441e-05
2.64517e-05
2.64518e-05
2.64516e-05
2.64517e-05
2.77537e-05
2.77434e-05
2.64513e-05
2.64514e-05
2.64512e-05
2.64513e-05
2.64508e-05
2.64504e-05
2.64507e-05
2.77536e-05
2.77435e-05
2.64505e-05
2.64508e-05
2.64504e-05
2.77428e-05
2.77543e-05
2.77441e-05
2.64517e-05
2.64518e-05
2.64516e-05
2.64516e-05
2.77536e-05
2.77434e-05
2.64513e-05
2.64514e-05
2.64512e-05
2.64513e-05
2.64508e-05
2.64504e-05
2.64507e-05
2.77537e-05
2.77434e-05
2.64505e-05
2.64508e-05
2.64504e-05
2.77427e-05
2.77543e-05
2.77441e-05
2.64517e-05
2.64518e-05
2.64516e-05
2.64516e-05
2.77537e-05
2.77434e-05
2.64513e-05
2.64514e-05
2.64512e-05
2.64513e-05
2.64508e-05
2.64504e-05
2.64507e-05
2.77536e-05
2.77434e-05
2.64505e-05
2.64508e-05
2.64503e-05
2.77425e-05
2.77543e-05
2.77441e-05
2.64517e-05
2.64517e-05
2.64516e-05
2.64516e-05
2.77537e-05
2.77434e-05
2.64513e-05
2.64514e-05
2.64512e-05
2.64513e-05
2.64508e-05
2.64505e-05
2.64506e-05
2.77536e-05
2.77434e-05
2.64504e-05
2.64508e-05
2.64503e-05
2.77426e-05
2.77543e-05
2.77441e-05
2.64517e-05
2.64517e-05
2.64516e-05
2.64516e-05
2.77537e-05
2.77435e-05
2.64513e-05
2.64514e-05
2.64512e-05
2.64513e-05
2.64508e-05
2.64505e-05
2.64507e-05
2.77536e-05
2.77434e-05
2.64505e-05
2.64508e-05
2.64504e-05
2.77428e-05
2.77543e-05
2.77441e-05
2.64518e-05
2.64518e-05
2.64517e-05
2.64517e-05
2.77537e-05
2.77435e-05
2.64513e-05
2.64514e-05
2.64512e-05
2.64513e-05
2.64508e-05
2.64505e-05
2.64507e-05
2.77536e-05
2.77434e-05
2.64505e-05
2.64508e-05
2.64504e-05
2.77427e-05
2.77543e-05
2.77441e-05
2.64518e-05
2.64518e-05
2.64517e-05
2.64517e-05
2.77537e-05
2.77435e-05
2.64513e-05
2.64514e-05
2.64512e-05
2.64513e-05
2.64508e-05
2.64505e-05
2.64507e-05
2.77536e-05
2.77435e-05
2.64505e-05
2.64509e-05
2.64504e-05
2.77426e-05
2.77544e-05
2.77441e-05
2.64518e-05
2.64518e-05
2.64517e-05
2.64517e-05
2.77537e-05
2.77434e-05
2.64513e-05
2.64514e-05
2.64512e-05
2.64513e-05
2.64508e-05
2.64505e-05
2.64507e-05
2.77537e-05
2.77435e-05
2.64505e-05
2.6451e-05
2.64503e-05
2.77426e-05
2.77544e-05
2.77442e-05
2.64518e-05
2.64518e-05
2.64517e-05
2.64517e-05
2.77537e-05
2.77435e-05
2.64513e-05
2.64514e-05
2.64512e-05
2.64513e-05
2.64508e-05
2.64506e-05
2.64507e-05
2.77537e-05
2.77435e-05
2.64504e-05
2.64509e-05
2.64503e-05
2.77427e-05
2.77544e-05
2.77442e-05
2.64518e-05
2.64518e-05
2.64517e-05
2.64517e-05
2.77537e-05
2.77435e-05
2.64513e-05
2.64514e-05
2.64512e-05
2.64513e-05
2.64508e-05
2.64506e-05
2.64507e-05
2.77537e-05
2.77434e-05
2.64505e-05
2.64508e-05
2.64504e-05
2.77427e-05
2.77544e-05
2.77441e-05
2.64518e-05
2.64518e-05
2.64516e-05
2.64517e-05
2.77537e-05
2.77435e-05
2.64513e-05
2.64514e-05
2.64512e-05
2.64513e-05
2.64508e-05
2.64506e-05
2.64507e-05
2.77536e-05
2.77434e-05
2.64505e-05
2.64508e-05
2.64504e-05
2.77427e-05
2.77543e-05
2.77441e-05
2.64518e-05
2.64518e-05
2.64516e-05
2.64517e-05
2.77537e-05
2.77435e-05
2.64513e-05
2.64514e-05
2.64512e-05
2.64513e-05
2.64508e-05
2.64506e-05
2.64507e-05
2.77536e-05
2.77434e-05
2.64505e-05
2.64508e-05
2.64504e-05
2.77426e-05
2.77543e-05
2.77441e-05
2.64517e-05
2.64518e-05
2.64516e-05
2.64517e-05
2.77537e-05
2.77435e-05
2.64513e-05
2.64514e-05
2.64511e-05
2.64513e-05
2.64508e-05
2.64507e-05
2.64507e-05
2.77536e-05
2.77434e-05
2.64505e-05
2.64508e-05
2.64504e-05
2.77426e-05
2.77543e-05
2.77441e-05
2.64517e-05
2.64518e-05
2.64516e-05
2.64517e-05
2.77537e-05
2.77435e-05
2.64512e-05
2.64514e-05
2.64511e-05
2.64513e-05
2.64508e-05
2.64506e-05
2.64507e-05
2.77536e-05
2.77434e-05
2.64505e-05
2.64509e-05
2.64504e-05
2.77427e-05
2.77543e-05
2.77441e-05
2.64517e-05
2.64518e-05
2.64516e-05
2.64517e-05
2.77537e-05
2.77435e-05
2.64512e-05
2.64514e-05
2.64511e-05
2.64513e-05
2.64509e-05
2.64506e-05
2.64507e-05
2.77536e-05
2.77434e-05
2.64506e-05
2.6451e-05
2.64504e-05
2.77428e-05
2.77543e-05
2.77441e-05
2.64517e-05
2.64518e-05
2.64516e-05
2.64517e-05
2.77537e-05
2.77435e-05
2.64513e-05
2.64514e-05
2.64511e-05
2.64513e-05
2.64509e-05
2.64506e-05
2.64507e-05
2.77536e-05
2.77434e-05
2.64505e-05
2.64509e-05
2.64504e-05
2.77427e-05
2.77543e-05
2.77441e-05
2.64518e-05
2.64518e-05
2.64516e-05
2.64517e-05
2.77537e-05
2.77435e-05
2.64513e-05
2.64514e-05
2.64511e-05
2.64513e-05
2.64508e-05
2.64505e-05
2.64507e-05
2.77536e-05
2.77435e-05
2.64505e-05
2.64509e-05
2.64504e-05
2.77426e-05
2.77543e-05
2.77441e-05
2.64518e-05
2.64518e-05
2.64517e-05
2.64516e-05
2.77537e-05
2.77434e-05
2.64513e-05
2.64514e-05
2.64512e-05
2.64513e-05
2.64508e-05
2.64506e-05
2.64506e-05
2.77537e-05
2.77435e-05
2.64505e-05
2.6451e-05
2.64504e-05
2.77426e-05
2.77544e-05
2.77442e-05
2.64518e-05
2.64518e-05
2.64517e-05
2.64517e-05
2.77537e-05
2.77435e-05
2.64514e-05
2.64514e-05
2.64512e-05
2.64513e-05
2.64508e-05
2.64507e-05
2.64507e-05
2.77537e-05
2.77435e-05
2.64505e-05
2.6451e-05
2.64504e-05
2.77427e-05
2.77544e-05
2.77441e-05
2.64519e-05
2.64519e-05
2.64517e-05
2.64516e-05
2.77537e-05
2.77435e-05
2.64515e-05
2.64515e-05
2.64513e-05
2.64514e-05
2.64509e-05
2.64507e-05
2.64508e-05
2.77537e-05
2.77435e-05
2.64506e-05
2.64511e-05
2.64505e-05
2.77427e-05
2.77544e-05
2.77441e-05
2.64519e-05
2.64518e-05
2.64517e-05
2.64517e-05
2.77537e-05
2.77435e-05
2.64516e-05
2.64516e-05
2.64513e-05
2.64513e-05
2.6451e-05
2.64507e-05
2.64508e-05
2.77537e-05
2.77435e-05
2.64507e-05
2.64511e-05
2.64504e-05
2.77427e-05
2.77544e-05
2.77442e-05
2.64519e-05
2.64519e-05
2.64518e-05
2.64517e-05
2.77537e-05
2.77435e-05
2.64515e-05
2.64515e-05
2.64513e-05
2.64514e-05
2.6451e-05
2.64507e-05
2.64508e-05
2.77537e-05
2.77435e-05
2.64506e-05
2.64511e-05
2.64504e-05
2.77427e-05
2.77544e-05
2.77441e-05
2.64521e-05
2.6452e-05
2.64518e-05
2.64518e-05
2.77537e-05
2.77435e-05
2.64516e-05
2.64517e-05
2.64513e-05
2.64514e-05
2.64511e-05
2.64507e-05
2.64509e-05
2.77537e-05
2.77435e-05
2.64508e-05
2.64511e-05
2.64506e-05
2.77428e-05
2.77544e-05
2.77441e-05
2.64521e-05
2.64521e-05
2.64518e-05
2.64518e-05
2.77538e-05
2.77435e-05
2.64517e-05
2.64518e-05
2.64514e-05
2.64515e-05
2.64513e-05
2.64508e-05
2.64509e-05
2.77537e-05
2.77435e-05
2.64509e-05
2.64511e-05
2.64505e-05
2.77428e-05
2.77544e-05
2.77442e-05
2.64522e-05
2.64522e-05
2.64519e-05
2.64519e-05
2.77538e-05
2.77436e-05
2.64518e-05
2.64518e-05
2.64514e-05
2.64515e-05
2.64513e-05
2.64508e-05
2.64509e-05
2.77537e-05
2.77435e-05
2.64509e-05
2.64511e-05
2.64505e-05
2.77428e-05
2.77545e-05
2.77442e-05
2.64524e-05
2.64523e-05
2.64519e-05
2.64519e-05
2.77538e-05
2.77436e-05
2.64519e-05
2.64519e-05
2.64514e-05
2.64515e-05
2.64514e-05
2.64508e-05
2.64509e-05
2.77537e-05
2.77435e-05
2.6451e-05
2.64511e-05
2.64505e-05
2.77428e-05
2.77545e-05
2.77443e-05
2.64525e-05
2.64525e-05
2.64519e-05
2.64519e-05
2.77539e-05
2.77437e-05
2.6452e-05
2.6452e-05
2.64514e-05
2.64515e-05
2.64514e-05
2.64508e-05
2.64508e-05
2.77538e-05
2.77437e-05
2.64511e-05
2.64511e-05
2.64505e-05
2.77428e-05
2.77546e-05
2.77445e-05
2.64526e-05
2.64526e-05
2.64519e-05
2.64519e-05
2.7754e-05
2.77438e-05
2.64522e-05
2.64522e-05
2.64515e-05
2.64515e-05
2.64516e-05
2.64508e-05
2.64509e-05
2.77539e-05
2.77438e-05
2.64512e-05
2.64511e-05
2.64505e-05
2.77429e-05
2.77547e-05
2.77447e-05
2.64529e-05
2.64529e-05
2.6452e-05
2.6452e-05
2.77541e-05
2.77441e-05
2.64524e-05
2.64525e-05
2.64516e-05
2.64516e-05
2.64518e-05
2.64509e-05
2.6451e-05
2.7754e-05
2.77441e-05
2.64515e-05
2.64512e-05
2.64506e-05
2.77432e-05
2.77548e-05
2.77438e-05
2.64532e-05
2.64531e-05
2.64501e-05
2.645e-05
2.77542e-05
2.77432e-05
2.64528e-05
2.64528e-05
2.64496e-05
2.64496e-05
2.64521e-05
2.6449e-05
2.6449e-05
2.77541e-05
2.77432e-05
2.64517e-05
2.64492e-05
2.64486e-05
2.77423e-05
2.77529e-05
2.76496e-05
2.64519e-05
2.64519e-05
2.63541e-05
2.63541e-05
2.77524e-05
2.76492e-05
2.64515e-05
2.64515e-05
2.63539e-05
2.63535e-05
2.64509e-05
2.63534e-05
2.6353e-05
2.77523e-05
2.76489e-05
2.64504e-05
2.63533e-05
2.63528e-05
2.76481e-05
2.75344e-05
2.62226e-05
2.62225e-05
2.75341e-05
2.62225e-05
2.62219e-05
2.49659e-05
2.49657e-05
2.49654e-05
2.62215e-05
2.75338e-05
2.62214e-05
2.34898e-05
9.1314e-06
1.87065e-05
1.86886e-05
6.64897e-08
1.88851e-06
3.84502e-06
1.33519e-05
6.97586e-08
1.92817e-06
1.33729e-05
9.11409e-07
5.00353e-07
2.95974e-07
3.18462e-07
2.68267e-07
5.41616e-06
2.07829e-07
7.07752e-06
1.47311e-05
2.28552e-05
2.66827e-07
8.68591e-06
2.08712e-07
1.14802e-05
1.36699e-05
1.36763e-05
1.37097e-05
1.38662e-05
1.38336e-05
1.38496e-05
1.38811e-05
6.94608e-08
1.60281e-06
7.36235e-06
2.26233e-06
6.76353e-08
1.24494e-06
7.40145e-06
1.46595e-05
2.24367e-05
6.90481e-08
7.39092e-06
1.09706e-06
2.36785e-06
6.96647e-08
7.36809e-06
1.06273e-06
1.80789e-06
1.84488e-06
5.38353e-07
1.80867e-06
1.82248e-06
4.67736e-07
1.0701e-05
3.56417e-07