/*--------------------------------*- C++ -*----------------------------------*\
| =========                 |                                                 |
| \\      /  F ield         | OpenFOAM: The Open Source CFD Toolbox           |
|  \\    /   O peration     | Version:  v1906                                 |
|   \\  /    A nd           | Web:      www.OpenFOAM.com                      |
|    \\/     M anipulation  |                                                 |
\*---------------------------------------------------------------------------*/
FoamFile
{
    version     2.0;
    format      ascii;
    class       volScalarField;
    location    "62.5";
    object      nut;
}
// * * * * * * * * * * * * * * * * * * * * * * * * * * * * * * * * * * * * * //

dimensions      [0 2 -1 0 0 0 0];


internalField   nonuniform List<scalar> 
171728
(
6.9748e-05
1.2458e-05
1.22068e-05
2.03381e-06
7.14177e-05
1.46519e-05
1.45594e-05
2.69549e-06
7.41386e-05
1.81714e-05
1.81868e-05
4.57708e-06
7.67563e-05
2.24427e-05
2.2352e-05
7.43748e-06
7.93338e-05
2.72848e-05
2.71807e-05
1.03806e-05
8.18072e-05
3.27064e-05
3.30151e-05
1.40625e-05
8.43516e-05
3.92568e-05
3.96503e-05
1.95396e-05
8.73036e-05
4.70198e-05
4.72331e-05
2.6692e-05
9.09528e-05
5.59542e-05
5.60547e-05
3.60107e-05
9.53363e-05
6.55374e-05
6.56151e-05
4.70517e-05
0.000101049
7.63066e-05
7.63098e-05
5.93642e-05
0.0001076
8.6754e-05
8.67725e-05
7.27025e-05
0.000114423
9.75745e-05
9.76001e-05
8.57012e-05
0.000118918
0.000105327
0.000105333
9.49914e-05
0.000123367
0.000113425
0.000113424
0.000104816
0.000126341
0.000118675
0.000118673
0.000111158
0.000127309
0.000120188
0.000120185
0.000112775
0.000127483
0.000120419
0.000120416
0.00011294
0.000127507
0.000120451
0.000120449
0.000112976
0.000127511
0.000120456
0.000120454
0.000112975
0.000127512
0.000120456
0.000120454
0.000112975
0.000127513
0.000120456
0.000120454
0.000112978
0.000127514
0.000120458
0.000120457
0.000112978
0.000127515
0.000120461
0.000120459
0.000112979
0.000127516
0.000120461
0.000120459
0.000112979
0.000127517
0.000120461
0.000120459
0.000112978
0.000127518
0.000120461
0.00012046
0.000112979
0.000127518
0.000120462
0.000120459
0.000112979
0.000127517
0.000120461
0.000120459
0.000112979
0.000127517
0.000120462
0.00012046
0.000112979
0.000127518
0.000120462
0.000120459
0.00011298
0.000127517
0.000120461
0.000120459
0.00011298
0.000127517
0.000120461
0.000120459
0.00011298
0.000127517
0.000120461
0.000120459
0.00011298
0.000127518
0.000120461
0.00012046
0.00011298
0.000127518
0.000120461
0.000120459
0.00011298
0.000127517
0.000120462
0.000120459
0.00011298
0.000127517
0.000120462
0.000120459
0.00011298
0.000127518
0.000120462
0.000120459
0.00011298
0.000127518
0.000120462
0.000120459
0.00011298
0.000127517
0.000120461
0.000120459
0.00011298
0.000127517
0.000120461
0.000120459
0.00011298
0.000127517
0.000120461
0.000120459
0.00011298
0.000127516
0.000120461
0.000120458
0.00011298
0.000127517
0.000120462
0.000120458
0.00011298
0.000127517
0.000120462
0.000120458
0.00011298
0.000127516
0.000120462
0.000120459
0.00011298
0.000127517
0.000120463
0.000120459
0.000112979
0.000127517
0.000120463
0.000120459
0.00011298
0.000127517
0.000120462
0.000120459
0.00011298
0.000127518
0.000120462
0.000120459
0.00011298
0.000127518
0.000120463
0.000120459
0.00011298
0.000127517
0.000120462
0.000120459
0.00011298
0.000127516
0.000120463
0.000120458
0.00011298
0.000127517
0.000120462
0.000120458
0.00011298
0.000127517
0.000120462
0.000120458
0.000112979
0.000127516
0.000120462
0.000120459
0.000112979
0.000127516
0.000120462
0.000120459
0.000112979
0.000127516
0.000120462
0.000120459
0.000112979
0.000127515
0.000120462
0.000120459
0.000112979
0.000127515
0.000120462
0.000120459
0.000112979
0.000127515
0.000120462
0.000120459
0.00011298
0.000127515
0.000120462
0.000120458
0.000112979
0.000127516
0.000120462
0.000120458
0.000112979
0.000127517
0.000120462
0.000120458
0.00011298
0.000127517
0.000120462
0.000120458
0.00011298
0.000127517
0.000120462
0.000120459
0.000112979
0.000127517
0.000120462
0.000120459
0.000112979
0.000127517
0.000120462
0.000120459
0.00011298
0.000127517
0.000120462
0.000120459
0.00011298
0.000127517
0.000120462
0.000120459
0.000112979
0.000127516
0.000120462
0.000120459
0.000112979
0.000127516
0.000120463
0.000120459
0.00011298
0.000127515
0.000120463
0.000120459
0.00011298
0.000127515
0.000120462
0.000120458
0.00011298
0.000127516
0.000120463
0.000120458
0.00011298
0.000127516
0.000120463
0.000120459
0.000112979
0.000127516
0.000120462
0.000120459
0.00011298
0.000127517
0.000120463
0.000120459
0.00011298
0.000127517
0.000120462
0.000120459
0.00011298
0.000127517
0.000120462
0.000120459
0.000112979
0.000127518
0.000120462
0.000120459
0.00011298
0.000127517
0.000120463
0.000120459
0.00011298
0.000127517
0.000120463
0.000120459
0.00011298
0.000127518
0.000120462
0.000120459
0.00011298
0.000127517
0.000120462
0.000120459
0.00011298
0.000127516
0.000120462
0.000120459
0.00011298
0.000127516
0.000120462
0.000120459
0.00011298
0.000127516
0.000120463
0.000120459
0.000112981
0.000127516
0.000120464
0.000120461
0.000112981
0.000127517
0.000120466
0.000120463
0.000112983
0.000127517
0.00012047
0.000120467
0.000112985
0.000127518
0.000120478
0.000120475
0.00011299
0.000127519
0.000120474
0.00012047
0.000112999
0.000127714
0.000121152
0.00012115
0.000114117
2.85455e-06
1.11358e-05
9.62672e-06
2.15362e-06
9.69023e-06
1.00429e-05
7.03087e-05
7.0277e-05
7.02482e-05
7.02714e-05
1.00384e-05
9.24582e-06
2.22251e-06
9.78067e-06
9.3682e-06
2.05166e-06
2.8464e-06
3.76013e-06
1.32158e-05
1.25589e-05
1.48058e-05
1.43806e-05
2.13456e-06
2.89546e-06
1.18936e-05
1.25387e-05
1.31213e-05
1.37799e-05
1.18249e-05
1.39006e-05
1.33451e-05
2.20327e-06
2.93106e-06
1.19977e-05
1.37864e-05
1.35519e-05
2.6625e-06
3.80238e-06
5.43463e-06
1.56152e-05
1.5275e-05
1.82562e-05
1.79467e-05
2.93846e-06
4.81172e-06
1.38145e-05
1.44377e-05
1.63684e-05
1.68046e-05
1.41175e-05
1.72488e-05
1.67088e-05
2.96486e-06
4.68275e-06
1.43313e-05
1.72396e-05
1.69248e-05
4.45209e-06
5.51668e-06
7.90709e-06
1.91802e-05
1.87215e-05
2.22543e-05
2.1133e-05
4.9399e-06
7.59903e-06
1.72771e-05
1.77174e-05
2.04194e-05
2.08831e-05
1.76533e-05
2.13054e-05
2.09589e-05
4.79917e-06
7.51136e-06
1.7875e-05
2.12877e-05
2.11479e-05
7.28333e-06
8.04545e-06
1.08519e-05
2.33031e-05
2.2025e-05
2.66266e-05
2.52929e-05
7.74827e-06
1.05086e-05
2.15882e-05
2.2017e-05
2.52926e-05
2.56855e-05
2.21123e-05
2.59983e-05
2.57566e-05
7.67282e-06
1.0556e-05
2.23137e-05
2.58606e-05
2.59995e-05
1.02448e-05
1.09873e-05
1.42413e-05
2.7796e-05
2.65542e-05
3.15341e-05
3.06959e-05
1.06468e-05
1.40904e-05
2.65791e-05
2.69946e-05
3.06754e-05
3.10767e-05
2.70613e-05
3.1282e-05
3.10986e-05
1.0699e-05
1.41834e-05
2.7253e-05
3.146e-05
3.12686e-05
1.38083e-05
1.4478e-05
1.94962e-05
3.29632e-05
3.22298e-05
3.77444e-05
3.71933e-05
1.43418e-05
1.94192e-05
3.21804e-05
3.25532e-05
3.70598e-05
3.73311e-05
3.25609e-05
3.74691e-05
3.72379e-05
1.44352e-05
1.95051e-05
3.27441e-05
3.78812e-05
3.75163e-05
1.91614e-05
1.98795e-05
2.65412e-05
3.95397e-05
3.90224e-05
4.53063e-05
4.478e-05
1.97934e-05
2.64443e-05
3.88803e-05
3.91304e-05
4.46961e-05
4.49191e-05
3.89455e-05
4.50342e-05
4.45408e-05
1.98836e-05
2.65458e-05
3.92608e-05
4.52823e-05
4.47262e-05
2.61561e-05
2.70666e-05
3.54414e-05
4.73067e-05
4.68272e-05
5.36481e-05
5.33673e-05
2.6983e-05
3.54183e-05
4.67325e-05
4.69473e-05
5.33283e-05
5.35144e-05
4.66085e-05
5.35246e-05
5.34474e-05
2.70792e-05
3.55103e-05
4.67495e-05
5.36832e-05
5.35019e-05
3.52949e-05
3.61272e-05
4.66137e-05
5.5988e-05
5.57598e-05
6.31264e-05
6.29467e-05
3.61142e-05
4.6647e-05
5.57505e-05
5.59186e-05
6.29398e-05
6.30086e-05
5.59187e-05
6.30967e-05
6.31009e-05
3.62034e-05
4.6683e-05
5.59567e-05
6.31455e-05
6.31598e-05
4.679e-05
4.68613e-05
5.87003e-05
6.55891e-05
6.5444e-05
7.35767e-05
7.35317e-05
4.68941e-05
5.87251e-05
6.54326e-05
6.54687e-05
7.35502e-05
7.35255e-05
6.55603e-05
7.35544e-05
7.35596e-05
4.69222e-05
5.87176e-05
6.5616e-05
7.35959e-05
7.35824e-05
5.87803e-05
5.93321e-05
7.15484e-05
7.63211e-05
7.62845e-05
8.40953e-05
8.40284e-05
5.93369e-05
7.14752e-05
7.63199e-05
7.62808e-05
8.40736e-05
8.40579e-05
7.62987e-05
8.40655e-05
8.40283e-05
5.93205e-05
7.15449e-05
7.63171e-05
8.40674e-05
8.4054e-05
7.14757e-05
7.27813e-05
8.44481e-05
8.67825e-05
8.67208e-05
9.50584e-05
9.50339e-05
7.27157e-05
8.4439e-05
8.67597e-05
8.67578e-05
9.50555e-05
9.50674e-05
8.67186e-05
9.50569e-05
9.50288e-05
7.27998e-05
8.45022e-05
8.67442e-05
9.50885e-05
9.50471e-05
8.44302e-05
8.57279e-05
9.39877e-05
9.75724e-05
9.75566e-05
0.000103488
0.000103484
8.57224e-05
9.39894e-05
9.75744e-05
9.75828e-05
0.000103495
0.000103492
9.75519e-05
0.000103498
0.000103482
8.57769e-05
9.39987e-05
9.75672e-05
0.000103507
0.000103491
9.39865e-05
9.50008e-05
0.000103586
0.000105319
0.000105315
0.000111438
0.000111437
9.50024e-05
0.000103589
0.000105325
0.00010532
0.000111444
0.000111436
0.000105315
0.000111449
0.000111438
9.50085e-05
0.000103587
0.000105323
0.000111449
0.000111444
0.000103586
0.000104822
0.000110602
0.000113415
0.000113413
0.000117781
0.000117778
0.000104825
0.000110604
0.000113421
0.000113412
0.000117786
0.000117776
0.000113415
0.000117791
0.000117782
0.000104822
0.0001106
0.000113421
0.000117789
0.000117788
0.000110601
0.000111162
0.000112764
0.000118666
0.000118664
0.000120007
0.000120004
0.000111163
0.000112765
0.000118671
0.000118661
0.000120012
0.000120001
0.000118667
0.000120016
0.000120009
0.000111158
0.00011276
0.000118674
0.000120014
0.000120015
0.000112763
0.000112776
0.00011299
0.00012018
0.000120177
0.000120388
0.000120385
0.000112777
0.000112991
0.000120185
0.000120173
0.000120393
0.000120382
0.000120182
0.000120396
0.000120389
0.000112772
0.000112985
0.000120188
0.000120394
0.000120396
0.000112988
0.000112944
0.000113034
0.000120411
0.000120409
0.00012044
0.000120438
0.000112945
0.000113035
0.000120416
0.000120404
0.000120445
0.000120433
0.000120412
0.000120448
0.00012044
0.000112939
0.000113029
0.000120418
0.000120445
0.000120446
0.000113031
0.000112979
0.00011304
0.000120444
0.000120441
0.000120448
0.000120446
0.00011298
0.000113041
0.000120449
0.000120437
0.000120453
0.000120441
0.000120443
0.000120456
0.000120446
0.000112974
0.000113035
0.00012045
0.000120454
0.000120453
0.000113034
0.000112981
0.00011304
0.000120448
0.000120446
0.000120448
0.000120445
0.000112982
0.000113041
0.000120453
0.000120441
0.000120453
0.000120441
0.000120446
0.000120456
0.000120446
0.000112976
0.000113035
0.000120452
0.000120454
0.000120452
0.000113034
0.000112982
0.000113042
0.000120448
0.000120445
0.00012045
0.000120446
0.000112983
0.000113042
0.000120453
0.000120441
0.000120454
0.000120442
0.000120446
0.000120456
0.000120447
0.000112977
0.000113036
0.000120452
0.000120454
0.000120453
0.000113036
0.000112983
0.000113044
0.00012045
0.000120445
0.000120454
0.000120448
0.000112984
0.000113044
0.000120455
0.000120442
0.000120459
0.000120445
0.000120447
0.000120458
0.000120451
0.000112978
0.000113039
0.000120454
0.000120456
0.000120457
0.000113036
0.000112985
0.000113043
0.000120455
0.000120449
0.000120456
0.000120451
0.000112986
0.000113044
0.000120459
0.000120446
0.00012046
0.000120447
0.000120451
0.000120461
0.000120451
0.000112981
0.000113038
0.000120457
0.000120459
0.000120457
0.000113037
0.000112985
0.000113043
0.000120456
0.000120451
0.000120456
0.000120451
0.000112986
0.000113044
0.00012046
0.000120448
0.00012046
0.000120447
0.000120451
0.000120462
0.000120451
0.00011298
0.000113038
0.000120456
0.000120459
0.000120456
0.000113037
0.000112984
0.000113043
0.000120456
0.000120451
0.000120456
0.000120451
0.000112985
0.000113044
0.00012046
0.000120447
0.00012046
0.000120447
0.000120451
0.000120461
0.000120451
0.00011298
0.000113038
0.000120455
0.000120459
0.000120455
0.000113035
0.000112984
0.000113043
0.000120456
0.000120451
0.000120456
0.000120451
0.000112986
0.000113044
0.00012046
0.000120447
0.00012046
0.000120447
0.00012045
0.000120461
0.000120451
0.00011298
0.000113038
0.000120455
0.00012046
0.000120456
0.000113035
0.000112985
0.000113044
0.000120456
0.000120451
0.000120456
0.000120451
0.000112986
0.000113044
0.000120461
0.000120447
0.00012046
0.000120447
0.000120451
0.000120462
0.000120451
0.00011298
0.000113038
0.000120456
0.000120459
0.000120456
0.000113035
0.000112985
0.000113043
0.000120456
0.000120451
0.000120456
0.000120451
0.000112986
0.000113044
0.00012046
0.000120447
0.00012046
0.000120447
0.000120451
0.000120462
0.000120451
0.00011298
0.000113038
0.000120455
0.000120459
0.000120456
0.000113035
0.000112985
0.000113043
0.000120456
0.000120451
0.000120456
0.000120451
0.000112986
0.000113044
0.00012046
0.000120447
0.00012046
0.000120447
0.000120451
0.000120462
0.000120451
0.00011298
0.000113038
0.000120456
0.00012046
0.000120456
0.000113035
0.000112985
0.000113043
0.000120456
0.000120451
0.000120456
0.000120451
0.000112986
0.000113044
0.00012046
0.000120448
0.000120461
0.000120448
0.000120451
0.000120462
0.000120451
0.00011298
0.000113038
0.000120456
0.00012046
0.000120456
0.000113036
0.000112985
0.000113043
0.000120455
0.000120451
0.000120455
0.000120451
0.000112986
0.000113044
0.000120461
0.000120448
0.000120461
0.000120448
0.000120451
0.000120462
0.000120451
0.00011298
0.000113038
0.000120456
0.000120459
0.000120456
0.000113036
0.000112985
0.000113044
0.000120456
0.000120451
0.000120456
0.00012045
0.000112986
0.000113044
0.000120461
0.000120448
0.000120461
0.000120447
0.000120451
0.000120461
0.000120451
0.00011298
0.000113038
0.000120456
0.000120459
0.000120456
0.000113036
0.000112985
0.000113043
0.000120456
0.00012045
0.000120456
0.00012045
0.000112986
0.000113044
0.000120461
0.000120447
0.000120461
0.000120447
0.000120451
0.000120461
0.000120451
0.00011298
0.000113038
0.000120456
0.000120459
0.000120456
0.000113036
0.000112985
0.000113043
0.000120456
0.00012045
0.000120455
0.00012045
0.000112986
0.000113044
0.000120461
0.000120447
0.000120461
0.000120447
0.000120451
0.000120461
0.000120451
0.00011298
0.000113038
0.000120456
0.00012046
0.000120456
0.000113036
0.000112985
0.000113043
0.000120455
0.000120451
0.000120455
0.000120451
0.000112986
0.000113045
0.000120461
0.000120447
0.000120461
0.000120447
0.000120451
0.000120461
0.000120451
0.00011298
0.000113038
0.000120456
0.00012046
0.000120456
0.000113036
0.000112985
0.000113043
0.000120455
0.000120451
0.000120455
0.00012045
0.000112986
0.000113045
0.000120461
0.000120448
0.000120461
0.000120448
0.000120451
0.000120462
0.000120451
0.00011298
0.000113038
0.000120456
0.000120459
0.000120456
0.000113036
0.000112985
0.000113043
0.000120455
0.00012045
0.000120455
0.000120451
0.000112986
0.000113045
0.00012046
0.000120447
0.000120461
0.000120447
0.000120451
0.000120462
0.000120451
0.00011298
0.000113038
0.000120456
0.00012046
0.000120456
0.000113036
0.000112985
0.000113043
0.000120455
0.00012045
0.000120455
0.00012045
0.000112986
0.000113045
0.000120461
0.000120447
0.000120461
0.000120447
0.000120451
0.000120462
0.000120451
0.00011298
0.000113038
0.000120456
0.000120459
0.000120456
0.000113035
0.000112985
0.000113044
0.000120456
0.00012045
0.000120456
0.000120451
0.000112986
0.000113045
0.000120461
0.000120447
0.000120461
0.000120447
0.000120451
0.000120462
0.000120451
0.00011298
0.000113038
0.000120456
0.000120459
0.000120456
0.000113036
0.000112985
0.000113043
0.000120455
0.000120451
0.000120455
0.000120451
0.000112986
0.000113045
0.000120461
0.000120447
0.000120461
0.000120447
0.00012045
0.000120461
0.000120451
0.00011298
0.000113038
0.000120456
0.000120459
0.000120456
0.000113036
0.000112985
0.000113043
0.000120456
0.000120451
0.000120455
0.000120451
0.000112986
0.000113044
0.000120461
0.000120447
0.000120461
0.000120447
0.000120451
0.000120461
0.000120451
0.00011298
0.000113038
0.000120456
0.000120459
0.000120456
0.000113036
0.000112985
0.000113043
0.000120455
0.000120451
0.000120455
0.000120451
0.000112986
0.000113044
0.000120461
0.000120448
0.000120461
0.000120448
0.000120451
0.000120461
0.000120451
0.00011298
0.000113038
0.000120456
0.000120459
0.000120456
0.000113036
0.000112985
0.000113043
0.000120455
0.000120451
0.000120455
0.000120451
0.000112986
0.000113044
0.00012046
0.000120448
0.00012046
0.000120448
0.000120451
0.000120461
0.000120451
0.00011298
0.000113038
0.000120456
0.000120459
0.000120456
0.000113036
0.000112985
0.000113043
0.000120455
0.000120451
0.000120455
0.000120451
0.000112986
0.000113044
0.00012046
0.000120448
0.00012046
0.000120448
0.000120451
0.000120462
0.000120451
0.00011298
0.000113038
0.000120456
0.000120458
0.000120456
0.000113036
0.000112985
0.000113043
0.000120455
0.000120451
0.000120455
0.000120451
0.000112986
0.000113044
0.00012046
0.000120448
0.000120461
0.000120448
0.000120451
0.000120462
0.000120451
0.00011298
0.000113038
0.000120456
0.000120458
0.000120456
0.000113036
0.000112985
0.000113043
0.000120455
0.000120451
0.000120455
0.000120451
0.000112986
0.000113044
0.000120461
0.000120447
0.000120461
0.000120447
0.000120451
0.000120462
0.000120451
0.00011298
0.000113038
0.000120456
0.000120459
0.000120456
0.000113035
0.000112985
0.000113043
0.000120455
0.000120451
0.000120456
0.000120451
0.000112986
0.000113044
0.00012046
0.000120447
0.000120461
0.000120447
0.000120451
0.000120463
0.00012045
0.00011298
0.000113038
0.000120455
0.000120459
0.000120455
0.000113035
0.000112985
0.000113043
0.000120456
0.000120451
0.000120456
0.000120451
0.000112986
0.000113045
0.000120461
0.000120448
0.000120461
0.000120448
0.00012045
0.000120463
0.000120451
0.00011298
0.000113038
0.000120455
0.000120459
0.000120456
0.000113035
0.000112985
0.000113043
0.000120455
0.000120451
0.000120456
0.000120451
0.000112986
0.000113045
0.000120461
0.000120447
0.000120461
0.000120448
0.000120451
0.000120462
0.000120451
0.00011298
0.000113038
0.000120456
0.000120459
0.000120455
0.000113036
0.000112985
0.000113043
0.000120455
0.000120451
0.000120456
0.000120451
0.000112986
0.000113044
0.000120461
0.000120448
0.000120461
0.000120448
0.000120451
0.000120462
0.000120451
0.00011298
0.000113038
0.000120456
0.000120459
0.000120456
0.000113035
0.000112985
0.000113043
0.000120457
0.000120451
0.000120456
0.000120451
0.000112986
0.000113045
0.000120461
0.000120447
0.000120461
0.000120447
0.000120451
0.000120463
0.000120451
0.00011298
0.000113038
0.000120456
0.000120459
0.000120456
0.000113035
0.000112985
0.000113043
0.000120456
0.000120451
0.000120456
0.000120451
0.000112986
0.000113045
0.00012046
0.000120447
0.00012046
0.000120447
0.000120451
0.000120462
0.000120451
0.00011298
0.000113038
0.000120456
0.000120459
0.000120456
0.000113036
0.000112985
0.000113043
0.000120456
0.000120451
0.000120456
0.000120451
0.000112986
0.000113045
0.000120461
0.000120447
0.00012046
0.000120447
0.000120451
0.000120463
0.000120451
0.00011298
0.000113038
0.000120456
0.000120459
0.000120456
0.000113036
0.000112985
0.000113043
0.000120456
0.000120451
0.000120456
0.000120451
0.000112986
0.000113045
0.00012046
0.000120447
0.00012046
0.000120447
0.000120451
0.000120462
0.000120451
0.00011298
0.000113038
0.000120456
0.000120458
0.000120456
0.000113036
0.000112985
0.000113043
0.000120456
0.000120451
0.000120456
0.000120451
0.000112986
0.000113045
0.00012046
0.000120447
0.00012046
0.000120447
0.000120451
0.000120462
0.000120451
0.00011298
0.000113038
0.000120456
0.000120458
0.000120456
0.000113035
0.000112985
0.000113043
0.000120456
0.000120451
0.000120456
0.000120451
0.000112986
0.000113045
0.00012046
0.000120447
0.00012046
0.000120447
0.000120451
0.000120462
0.00012045
0.00011298
0.000113038
0.000120455
0.000120459
0.000120455
0.000113035
0.000112985
0.000113043
0.000120456
0.000120451
0.000120456
0.000120451
0.000112986
0.000113045
0.00012046
0.000120447
0.00012046
0.000120448
0.00012045
0.000120462
0.00012045
0.00011298
0.000113038
0.000120455
0.000120459
0.000120455
0.000113035
0.000112985
0.000113043
0.000120456
0.000120451
0.000120456
0.000120452
0.000112986
0.000113045
0.00012046
0.000120448
0.00012046
0.000120447
0.000120451
0.000120463
0.000120451
0.00011298
0.000113038
0.000120455
0.000120459
0.000120455
0.000113035
0.000112985
0.000113043
0.000120456
0.000120452
0.000120456
0.000120451
0.000112987
0.000113045
0.00012046
0.000120447
0.00012046
0.000120447
0.00012045
0.000120462
0.00012045
0.00011298
0.000113038
0.000120454
0.000120459
0.000120455
0.000113035
0.000112985
0.000113043
0.000120456
0.000120452
0.000120456
0.000120451
0.000112986
0.000113045
0.00012046
0.000120447
0.00012046
0.000120447
0.000120451
0.000120462
0.000120451
0.00011298
0.000113038
0.000120455
0.00012046
0.000120455
0.000113035
0.000112985
0.000113043
0.000120456
0.000120451
0.000120456
0.000120451
0.000112986
0.000113044
0.00012046
0.000120447
0.00012046
0.000120447
0.000120451
0.000120462
0.000120451
0.00011298
0.000113038
0.000120456
0.000120459
0.000120455
0.000113036
0.000112985
0.000113043
0.000120455
0.000120451
0.000120456
0.000120451
0.000112986
0.000113044
0.00012046
0.000120447
0.00012046
0.000120447
0.000120451
0.000120462
0.00012045
0.00011298
0.000113038
0.000120455
0.000120458
0.000120455
0.000113035
0.000112985
0.000113043
0.000120456
0.000120451
0.000120456
0.000120451
0.000112986
0.000113045
0.000120459
0.000120447
0.00012046
0.000120447
0.00012045
0.000120462
0.000120451
0.00011298
0.000113038
0.000120455
0.000120459
0.000120455
0.000113035
0.000112985
0.000113043
0.000120455
0.000120451
0.000120456
0.000120451
0.000112986
0.000113044
0.00012046
0.000120447
0.00012046
0.000120448
0.000120451
0.000120462
0.000120451
0.00011298
0.000113038
0.000120456
0.000120458
0.000120456
0.000113036
0.000112985
0.000113043
0.000120456
0.000120451
0.000120456
0.000120451
0.000112986
0.000113045
0.00012046
0.000120448
0.00012046
0.000120448
0.000120451
0.000120462
0.000120451
0.00011298
0.000113038
0.000120456
0.000120458
0.000120455
0.000113036
0.000112985
0.000113043
0.000120456
0.000120451
0.000120456
0.000120451
0.000112986
0.000113045
0.00012046
0.000120447
0.00012046
0.000120447
0.000120451
0.000120462
0.000120451
0.00011298
0.000113038
0.000120455
0.000120459
0.000120455
0.000113035
0.000112985
0.000113043
0.000120456
0.000120451
0.000120456
0.000120451
0.000112986
0.000113044
0.00012046
0.000120448
0.00012046
0.000120447
0.000120451
0.000120462
0.000120451
0.00011298
0.000113038
0.000120455
0.000120459
0.000120455
0.000113035
0.000112985
0.000113043
0.000120456
0.000120451
0.000120456
0.000120451
0.000112986
0.000113045
0.00012046
0.000120447
0.00012046
0.000120447
0.000120451
0.000120462
0.000120451
0.00011298
0.000113038
0.000120456
0.000120459
0.000120456
0.000113036
0.000112985
0.000113043
0.000120456
0.000120451
0.000120456
0.000120451
0.000112986
0.000113045
0.000120459
0.000120447
0.00012046
0.000120447
0.000120451
0.000120462
0.000120451
0.00011298
0.000113038
0.000120455
0.000120459
0.000120456
0.000113036
0.000112985
0.000113043
0.000120456
0.000120451
0.000120456
0.000120451
0.000112986
0.000113045
0.00012046
0.000120447
0.00012046
0.000120447
0.000120451
0.000120462
0.000120451
0.00011298
0.000113038
0.000120456
0.000120459
0.000120455
0.000113035
0.000112985
0.000113043
0.000120456
0.000120451
0.000120456
0.000120451
0.000112986
0.000113044
0.00012046
0.000120448
0.00012046
0.000120447
0.000120451
0.000120462
0.000120451
0.00011298
0.000113038
0.000120455
0.000120459
0.000120455
0.000113036
0.000112985
0.000113043
0.000120456
0.000120451
0.000120456
0.000120451
0.000112986
0.000113045
0.00012046
0.000120447
0.00012046
0.000120447
0.000120451
0.000120463
0.000120451
0.00011298
0.000113038
0.000120455
0.000120459
0.000120455
0.000113036
0.000112985
0.000113043
0.000120456
0.000120451
0.000120456
0.000120451
0.000112986
0.000113045
0.00012046
0.000120447
0.00012046
0.000120447
0.00012045
0.000120463
0.000120451
0.00011298
0.000113038
0.000120455
0.000120459
0.000120455
0.000113036
0.000112985
0.000113043
0.000120456
0.000120451
0.000120456
0.000120451
0.000112986
0.000113045
0.00012046
0.000120448
0.00012046
0.000120447
0.000120451
0.000120462
0.000120451
0.00011298
0.000113038
0.000120455
0.000120459
0.000120455
0.000113036
0.000112985
0.000113043
0.000120456
0.000120451
0.000120456
0.000120451
0.000112986
0.000113045
0.00012046
0.000120447
0.00012046
0.000120448
0.000120451
0.000120463
0.000120451
0.00011298
0.000113038
0.000120455
0.000120458
0.000120455
0.000113035
0.000112985
0.000113043
0.000120456
0.000120451
0.000120456
0.000120451
0.000112986
0.000113045
0.00012046
0.000120448
0.00012046
0.000120447
0.000120451
0.000120463
0.000120451
0.00011298
0.000113038
0.000120455
0.000120459
0.000120455
0.000113035
0.000112985
0.000113043
0.000120456
0.000120451
0.000120456
0.000120451
0.000112986
0.000113045
0.00012046
0.000120447
0.00012046
0.000120447
0.000120451
0.000120462
0.000120451
0.00011298
0.000113038
0.000120456
0.000120459
0.000120456
0.000113036
0.000112985
0.000113043
0.000120456
0.000120451
0.000120456
0.000120451
0.000112986
0.000113045
0.000120459
0.000120447
0.00012046
0.000120447
0.000120451
0.000120463
0.000120451
0.00011298
0.000113038
0.000120456
0.00012046
0.000120456
0.000113036
0.000112985
0.000113043
0.000120456
0.000120451
0.000120456
0.000120451
0.000112986
0.000113045
0.00012046
0.000120447
0.00012046
0.000120447
0.000120451
0.000120463
0.000120451
0.00011298
0.000113038
0.000120456
0.000120459
0.000120456
0.000113036
0.000112985
0.000113043
0.000120456
0.000120451
0.000120456
0.000120451
0.000112986
0.000113045
0.00012046
0.000120447
0.00012046
0.000120447
0.000120451
0.000120462
0.000120451
0.00011298
0.000113038
0.000120456
0.000120459
0.000120456
0.000113035
0.000112985
0.000113043
0.000120456
0.000120452
0.000120456
0.000120451
0.000112986
0.000113045
0.00012046
0.000120447
0.00012046
0.000120448
0.000120451
0.000120462
0.000120451
0.00011298
0.000113038
0.000120456
0.000120459
0.000120456
0.000113036
0.000112985
0.000113043
0.000120457
0.000120452
0.000120457
0.000120451
0.000112986
0.000113045
0.00012046
0.000120448
0.00012046
0.000120448
0.000120451
0.000120462
0.000120451
0.00011298
0.000113038
0.000120456
0.000120459
0.000120456
0.000113036
0.000112985
0.000113043
0.000120457
0.000120452
0.000120456
0.000120451
0.000112986
0.000113045
0.000120461
0.000120448
0.00012046
0.000120447
0.000120452
0.000120463
0.000120451
0.00011298
0.000113038
0.000120456
0.000120459
0.000120456
0.000113036
0.000112985
0.000113043
0.000120456
0.000120451
0.000120456
0.000120451
0.000112986
0.000113045
0.000120461
0.000120448
0.00012046
0.000120447
0.000120451
0.000120462
0.000120451
0.00011298
0.000113038
0.000120456
0.000120459
0.000120455
0.000113036
0.000112985
0.000113043
0.000120456
0.000120452
0.000120456
0.000120451
0.000112986
0.000113045
0.000120461
0.000120448
0.00012046
0.000120447
0.000120451
0.000120462
0.000120451
0.00011298
0.000113038
0.000120455
0.000120458
0.000120455
0.000113036
0.000112985
0.000113043
0.000120457
0.000120452
0.000120457
0.000120451
0.000112986
0.000113045
0.000120461
0.000120448
0.00012046
0.000120448
0.000120452
0.000120462
0.000120452
0.00011298
0.000113038
0.000120456
0.000120458
0.000120457
0.000113036
0.000112985
0.000113043
0.000120457
0.000120452
0.000120457
0.000120452
0.000112987
0.000113045
0.000120461
0.000120448
0.00012046
0.000120448
0.000120453
0.000120462
0.000120452
0.00011298
0.000113038
0.000120457
0.000120458
0.000120456
0.000113036
0.000112985
0.000113044
0.000120457
0.000120452
0.000120457
0.000120452
0.000112987
0.000113045
0.000120461
0.000120448
0.000120461
0.000120448
0.000120452
0.000120462
0.000120452
0.000112981
0.000113039
0.000120457
0.000120459
0.000120456
0.000113036
0.000112986
0.000113044
0.000120458
0.000120453
0.000120458
0.000120453
0.000112987
0.000113046
0.000120462
0.000120449
0.000120462
0.000120449
0.000120453
0.000120463
0.000120452
0.000112981
0.000113039
0.000120457
0.00012046
0.000120457
0.000113037
0.000112987
0.000113046
0.000120459
0.000120454
0.000120459
0.000120454
0.000112988
0.000113047
0.000120463
0.00012045
0.000120463
0.00012045
0.000120454
0.000120465
0.000120454
0.000112982
0.000113041
0.000120458
0.000120461
0.000120458
0.000113038
0.000112988
0.000113048
0.000120461
0.000120456
0.000120463
0.000120458
0.00011299
0.00011305
0.000120465
0.000120452
0.000120466
0.000120454
0.000120456
0.000120468
0.000120457
0.000112983
0.000113043
0.00012046
0.000120465
0.000120461
0.00011304
0.000112991
0.000113052
0.000120465
0.000120461
0.000120469
0.000120464
0.000112992
0.000113053
0.000120469
0.000120456
0.000120473
0.00012046
0.00012046
0.000120474
0.000120463
0.000112986
0.000113047
0.000120464
0.000120471
0.000120468
0.000113044
0.000112995
0.000113062
0.000120473
0.000120468
0.000120486
0.000120482
0.000112996
0.000113064
0.000120477
0.000120464
0.00012049
0.000120478
0.000120468
0.000120492
0.00012048
0.00011299
0.000113057
0.000120472
0.000120488
0.000120486
0.000113053
0.000113004
0.000113556
0.000120468
0.000120464
0.000120975
0.000120971
0.000113005
0.000113556
0.000120472
0.00012046
0.000120978
0.000120968
0.000120462
0.000120978
0.000120969
0.000112999
0.000113551
0.000120468
0.000120976
0.000120974
0.00011355
0.000114123
0.00012115
0.000121147
0.000114123
0.000121152
0.000121144
0.000127714
0.000127713
0.000127711
0.000121145
0.000114119
0.000121148
0.000121099
4.7667e-05
9.43647e-05
9.42856e-05
5.14124e-07
1.04894e-05
1.44263e-05
6.6967e-05
5.05082e-07
1.02371e-05
6.70421e-05
2.6043e-06
2.02349e-06
9.45393e-07
1.28452e-06
9.96259e-07
1.40997e-05
8.65666e-07
1.57609e-05
1.12182e-05
1.35471e-05
9.68287e-07
1.78375e-05
8.24656e-07
2.00624e-05
6.97275e-05
6.96678e-05
6.96869e-05
7.07211e-05
7.06762e-05
7.06562e-05
7.06819e-05
5.31529e-07
1.69432e-06
3.86992e-05
1.26367e-05
5.17161e-07
1.385e-06
3.91039e-05
1.11816e-05
1.3424e-05
4.72532e-07
3.87807e-05
1.02638e-06
1.24528e-05
4.90189e-07
3.84573e-05
1.19514e-06
1.38093e-06
1.43282e-06
2.21377e-06
1.57762e-06
1.63946e-06
1.207e-06
1.93696e-05
1.10458e-06
2.17311e-05
1.74474e-05
1.96069e-05
1.20113e-06
2.4445e-05
1.09582e-06
2.70107e-05
7.13441e-05
7.13539e-05
7.13812e-05
7.3493e-05
7.33819e-05
7.34405e-05
7.34689e-05
5.24956e-07