/*--------------------------------*- C++ -*----------------------------------*\
| =========                 |                                                 |
| \\      /  F ield         | OpenFOAM: The Open Source CFD Toolbox           |
|  \\    /   O peration     | Version:  v1906                                 |
|   \\  /    A nd           | Web:      www.OpenFOAM.com                      |
|    \\/     M anipulation  |                                                 |
\*---------------------------------------------------------------------------*/
FoamFile
{
    version     2.0;
    format      ascii;
    class       volScalarField;
    location    "62.5";
    object      p;
}
// * * * * * * * * * * * * * * * * * * * * * * * * * * * * * * * * * * * * * //

dimensions      [0 2 -2 0 0 0 0];


internalField   nonuniform List<scalar> 
171728
(
0.00366191
0.003662
0.00366194
0.00366398
0.00362359
0.00362346
0.00362326
0.00362623
0.00358742
0.003587
0.00358699
0.00358905
0.00354142
0.00354107
0.00354112
0.00354382
0.00349388
0.00349358
0.00349353
0.00349629
0.00344554
0.00344525
0.00344529
0.00344802
0.00339763
0.00339732
0.00339735
0.00340009
0.00335062
0.00335042
0.00335035
0.00335307
0.00330489
0.00330476
0.0033047
0.00330737
0.00326085
0.00326076
0.00326073
0.00326338
0.00321811
0.00321812
0.00321813
0.00322073
0.00317562
0.00317568
0.00317568
0.00317837
0.00313219
0.00313208
0.00313208
0.00313485
0.00308868
0.00308836
0.00308837
0.00309101
0.00304703
0.0030468
0.00304679
0.0030493
0.00300745
0.00300733
0.00300733
0.00300967
0.00296899
0.00296893
0.00296893
0.0029712
0.00293086
0.00293082
0.00293082
0.00293307
0.00289278
0.00289274
0.00289274
0.002895
0.00285471
0.00285466
0.00285466
0.00285692
0.00281663
0.00281659
0.00281658
0.00281884
0.00277855
0.00277851
0.00277851
0.00278076
0.00274047
0.00274043
0.00274043
0.00274268
0.00270239
0.00270235
0.00270235
0.00270461
0.00266431
0.00266427
0.00266427
0.00266653
0.00262623
0.00262619
0.00262619
0.00262845
0.00258815
0.00258811
0.00258811
0.00259036
0.00255007
0.00255002
0.00255002
0.00255228
0.00251198
0.00251194
0.00251194
0.00251419
0.00247389
0.00247385
0.00247385
0.00247611
0.0024358
0.00243576
0.00243576
0.00243802
0.00239771
0.00239767
0.00239767
0.00239993
0.00235963
0.00235958
0.00235958
0.00236184
0.00232154
0.0023215
0.0023215
0.00232375
0.00228345
0.00228341
0.00228341
0.00228567
0.00224537
0.00224533
0.00224533
0.00224758
0.00220728
0.00220724
0.00220724
0.0022095
0.0021692
0.00216915
0.00216915
0.00217141
0.00213111
0.00213107
0.00213107
0.00213333
0.00209303
0.00209298
0.00209298
0.00209524
0.00205494
0.0020549
0.0020549
0.00205716
0.00201685
0.00201681
0.00201681
0.00201907
0.00197877
0.00197872
0.00197872
0.00198098
0.00194068
0.00194064
0.00194064
0.00194289
0.00190259
0.00190255
0.00190255
0.00190481
0.00186451
0.00186446
0.00186446
0.00186672
0.00182642
0.00182638
0.00182638
0.00182863
0.00178833
0.00178829
0.00178829
0.00179055
0.00175024
0.0017502
0.0017502
0.00175246
0.00171216
0.00171211
0.00171211
0.00171437
0.00167407
0.00167403
0.00167403
0.00167628
0.00163598
0.00163594
0.00163594
0.0016382
0.0015979
0.00159785
0.00159785
0.00160011
0.00155981
0.00155977
0.00155977
0.00156202
0.00152173
0.00152168
0.00152168
0.00152394
0.00148364
0.0014836
0.0014836
0.00148586
0.00144556
0.00144552
0.00144552
0.00144777
0.00140748
0.00140744
0.00140744
0.00140969
0.0013694
0.00136936
0.00136936
0.00137161
0.00133132
0.00133128
0.00133128
0.00133353
0.00129324
0.0012932
0.0012932
0.00129545
0.00125516
0.00125512
0.00125512
0.00125737
0.00121708
0.00121704
0.00121704
0.00121929
0.001179
0.00117896
0.00117896
0.00118121
0.00114092
0.00114088
0.00114088
0.00114313
0.00110284
0.0011028
0.0011028
0.00110506
0.00106476
0.00106472
0.00106472
0.00106698
0.00102669
0.00102664
0.00102664
0.0010289
0.000988613
0.00098857
0.00098857
0.000990826
0.000950541
0.000950498
0.000950498
0.000952754
0.000912469
0.000912426
0.000912427
0.000914683
0.000874397
0.000874354
0.000874354
0.000876611
0.000836325
0.000836283
0.000836283
0.000838539
0.000798254
0.000798211
0.000798211
0.000800468
0.000760183
0.00076014
0.00076014
0.000762397
0.000722112
0.00072207
0.00072207
0.000724326
0.000684042
0.000683999
0.000683999
0.000686256
0.000645972
0.00064593
0.00064593
0.000648186
0.000607902
0.000607859
0.000607859
0.000610116
0.00056983
0.000569787
0.000569787
0.000572044
0.000531758
0.000531715
0.000531715
0.000533972
0.000493686
0.000493643
0.000493643
0.000495899
0.000455615
0.000455572
0.000455572
0.000457828
0.000417545
0.000417503
0.000417503
0.00041976
0.000379474
0.000379432
0.000379432
0.000381687
0.000341401
0.000341358
0.000341358
0.000343613
0.000303327
0.000303284
0.000303284
0.000305539
0.000265249
0.000265205
0.000265205
0.000267457
0.000227166
0.000227124
0.000227124
0.000229374
0.000189082
0.000189041
0.000189041
0.000191284
0.000150989
0.000150951
0.000150951
0.000153184
0.000112881
0.000112851
0.000112851
0.000115067
7.47764e-05
7.47369e-05
7.47354e-05
7.69236e-05
3.7503e-05
3.69477e-05
3.69444e-05
3.89348e-05
6.27897e-06
6.28215e-06
6.28178e-06
6.13755e-06
0.00367008
0.0036696
0.00366954
0.00367005
0.00366959
0.0036695
0.00367151
0.00367152
0.00367144
0.00367144
0.00366954
0.00366947
0.00366999
0.0036695
0.00366945
0.00366996
0.00366415
0.00363012
0.003662
0.00366197
0.00363159
0.00363159
0.00366387
0.00362995
0.00366204
0.00366195
0.00363188
0.00363165
0.00366189
0.00363197
0.0036315
0.00366402
0.00363015
0.00366185
0.00363149
0.00363157
0.00363014
0.00362618
0.00359429
0.00362325
0.00362325
0.00359714
0.00359719
0.00362608
0.00359437
0.00362317
0.00362326
0.00359695
0.00359714
0.00362331
0.00359717
0.00359717
0.00362625
0.00359444
0.00362323
0.00359712
0.00359724
0.00359442
0.00358894
0.00354986
0.00358687
0.00358702
0.00355284
0.003553
0.00358902
0.00354983
0.00358666
0.00358696
0.00355269
0.00355284
0.00358696
0.00355273
0.00355288
0.00358905
0.00354983
0.00358692
0.0035528
0.00355284
0.00354986
0.00354381
0.00350239
0.00354106
0.00354107
0.00350548
0.00350551
0.00354377
0.00350235
0.00354094
0.00354107
0.00350547
0.00350546
0.00354108
0.0035054
0.00350551
0.0035438
0.00350243
0.00354117
0.00350563
0.00350557
0.00350243
0.00349625
0.00345415
0.0034936
0.00349338
0.00345736
0.00345715
0.00349623
0.00345421
0.00349353
0.00349353
0.00345727
0.00345725
0.00349365
0.00345708
0.00345737
0.00349629
0.00345417
0.00349355
0.00345723
0.00345724
0.00345417
0.00344801
0.00340619
0.00344519
0.00344526
0.00340924
0.00340933
0.00344804
0.00340621
0.00344533
0.00344528
0.0034093
0.00340926
0.00344527
0.00340919
0.00340935
0.00344803
0.00340617
0.00344533
0.00340931
0.00340926
0.00340616
0.00340012
0.00335909
0.00339734
0.00339746
0.00336199
0.00336211
0.00340014
0.00335909
0.00339741
0.0033974
0.00336208
0.00336206
0.00339732
0.00336206
0.00336202
0.00340011
0.00335908
0.00339745
0.00336208
0.00336194
0.00335901
0.00335313
0.00331316
0.00335042
0.00335048
0.00331592
0.00331602
0.00335314
0.00331316
0.00335043
0.00335043
0.003316
0.00331601
0.00335036
0.003316
0.00331592
0.00335313
0.00331319
0.0033504
0.00331601
0.00331591
0.00331315
0.00330737
0.00326887
0.00330468
0.00330479
0.00327153
0.00327156
0.00330739
0.00326887
0.00330475
0.00330478
0.00327156
0.00327158
0.00330469
0.00327158
0.00327161
0.0033074
0.00326889
0.00330467
0.00327159
0.00327157
0.00326895
0.0032633
0.00322616
0.00326067
0.00326071
0.00322868
0.0032287
0.00326331
0.00322615
0.00326072
0.00326073
0.00322869
0.00322869
0.00326077
0.00322871
0.00322873
0.00326333
0.00322615
0.00326074
0.00322871
0.00322873
0.00322617
0.00322073
0.0031839
0.00321812
0.00321812
0.00318631
0.0031863
0.00322071
0.00318388
0.00321811
0.00321809
0.00318631
0.0031863
0.00321815
0.0031863
0.0031863
0.00322072
0.00318389
0.00321814
0.0031863
0.0031863
0.00318388
0.00317839
0.0031406
0.00317569
0.00317568
0.00314313
0.00314312
0.00317837
0.0031406
0.00317569
0.00317568
0.00314313
0.00314313
0.00317568
0.00314312
0.00314312
0.00317838
0.0031406
0.00317568
0.00314313
0.00314312
0.0031406
0.00313485
0.00309668
0.00313208
0.00313208
0.00309914
0.00309914
0.00313485
0.00309668
0.00313208
0.00313208
0.00309914
0.00309914
0.00313208
0.00309914
0.00309914
0.00313485
0.00309668
0.00313208
0.00309914
0.00309914
0.00309668
0.00309101
0.00305459
0.00308837
0.00308837
0.00305694
0.00305694
0.00309101
0.0030546
0.00308837
0.00308837
0.00305694
0.00305694
0.00308837
0.00305694
0.00305694
0.00309101
0.0030546
0.00308836
0.00305694
0.00305694
0.0030546
0.00304929
0.00301477
0.00304679
0.00304679
0.00301705
0.00301705
0.0030493
0.00301477
0.00304679
0.00304679
0.00301705
0.00301705
0.00304679
0.00301705
0.00301705
0.0030493
0.00301477
0.00304679
0.00301705
0.00301705
0.00301477
0.00300967
0.00297622
0.00300733
0.00300733
0.00297848
0.00297848
0.00300967
0.00297622
0.00300733
0.00300733
0.00297848
0.00297849
0.00300733
0.00297848
0.00297848
0.00300967
0.00297622
0.00300733
0.00297848
0.00297848
0.00297622
0.0029712
0.00293808
0.00296893
0.00296893
0.00294034
0.00294034
0.0029712
0.00293808
0.00296893
0.00296893
0.00294034
0.00294034
0.00296893
0.00294034
0.00294034
0.0029712
0.00293808
0.00296893
0.00294034
0.00294034
0.00293808
0.00293307
0.00290001
0.00293082
0.00293082
0.00290226
0.00290226
0.00293307
0.0029
0.00293082
0.00293082
0.00290226
0.00290226
0.00293082
0.00290226
0.00290226
0.00293307
0.0029
0.00293082
0.00290226
0.00290226
0.0029
0.002895
0.00286193
0.00289274
0.00289274
0.00286418
0.00286418
0.002895
0.00286193
0.00289274
0.00289274
0.00286418
0.00286418
0.00289274
0.00286418
0.00286418
0.002895
0.00286193
0.00289274
0.00286418
0.00286418
0.00286193
0.00285692
0.00282385
0.00285466
0.00285466
0.0028261
0.00282611
0.00285692
0.00282385
0.00285466
0.00285466
0.0028261
0.0028261
0.00285466
0.0028261
0.0028261
0.00285692
0.00282385
0.00285466
0.0028261
0.0028261
0.00282385
0.00281884
0.00278577
0.00281658
0.00281659
0.00278803
0.00278803
0.00281884
0.00278577
0.00281658
0.00281659
0.00278803
0.00278803
0.00281658
0.00278803
0.00278803
0.00281884
0.00278577
0.00281658
0.00278803
0.00278803
0.00278577
0.00278076
0.00274769
0.00277851
0.00277851
0.00274995
0.00274995
0.00278076
0.00274769
0.00277851
0.00277851
0.00274995
0.00274995
0.00277851
0.00274995
0.00274995
0.00278076
0.00274769
0.00277851
0.00274995
0.00274995
0.00274769
0.00274268
0.00270961
0.00274043
0.00274043
0.00271187
0.00271187
0.00274268
0.00270961
0.00274043
0.00274043
0.00271187
0.00271187
0.00274043
0.00271187
0.00271187
0.00274268
0.00270961
0.00274043
0.00271187
0.00271187
0.00270961
0.00270461
0.00267153
0.00270235
0.00270235
0.00267379
0.00267379
0.00270461
0.00267153
0.00270235
0.00270235
0.00267379
0.00267379
0.00270235
0.00267379
0.00267379
0.00270461
0.00267153
0.00270235
0.00267379
0.00267379
0.00267153
0.00266653
0.00263345
0.00266427
0.00266427
0.00263571
0.00263571
0.00266653
0.00263345
0.00266427
0.00266427
0.00263571
0.00263571
0.00266427
0.00263571
0.00263571
0.00266653
0.00263345
0.00266427
0.00263571
0.00263571
0.00263345
0.00262844
0.00259537
0.00262619
0.00262619
0.00259763
0.00259763
0.00262844
0.00259537
0.00262619
0.00262619
0.00259763
0.00259763
0.00262619
0.00259763
0.00259763
0.00262845
0.00259537
0.00262619
0.00259763
0.00259763
0.00259537
0.00259036
0.00255729
0.00258811
0.00258811
0.00255954
0.00255954
0.00259036
0.00255729
0.00258811
0.00258811
0.00255954
0.00255954
0.00258811
0.00255954
0.00255954
0.00259036
0.00255729
0.00258811
0.00255954
0.00255954
0.00255729
0.00255228
0.0025192
0.00255002
0.00255002
0.00252146
0.00252146
0.00255228
0.0025192
0.00255002
0.00255002
0.00252146
0.00252146
0.00255002
0.00252146
0.00252146
0.00255228
0.0025192
0.00255002
0.00252146
0.00252146
0.0025192
0.00251419
0.00248112
0.00251194
0.00251194
0.00248337
0.00248337
0.00251419
0.00248112
0.00251194
0.00251194
0.00248337
0.00248337
0.00251194
0.00248337
0.00248337
0.00251419
0.00248112
0.00251194
0.00248337
0.00248337
0.00248112
0.00247611
0.00244303
0.00247385
0.00247385
0.00244528
0.00244528
0.00247611
0.00244303
0.00247385
0.00247385
0.00244528
0.00244528
0.00247385
0.00244528
0.00244528
0.00247611
0.00244303
0.00247385
0.00244528
0.00244528
0.00244303
0.00243802
0.00240494
0.00243576
0.00243576
0.00240719
0.00240719
0.00243802
0.00240494
0.00243576
0.00243576
0.00240719
0.00240719
0.00243576
0.00240719
0.00240719
0.00243802
0.00240494
0.00243576
0.00240719
0.00240719
0.00240494
0.00239993
0.00236685
0.00239767
0.00239767
0.00236911
0.00236911
0.00239993
0.00236685
0.00239767
0.00239767
0.00236911
0.00236911
0.00239767
0.00236911
0.00236911
0.00239993
0.00236685
0.00239767
0.00236911
0.00236911
0.00236685
0.00236184
0.00232876
0.00235958
0.00235958
0.00233102
0.00233102
0.00236184
0.00232876
0.00235958
0.00235958
0.00233102
0.00233102
0.00235958
0.00233102
0.00233102
0.00236184
0.00232876
0.00235958
0.00233102
0.00233102
0.00232876
0.00232375
0.00229068
0.0023215
0.0023215
0.00229293
0.00229293
0.00232375
0.00229068
0.0023215
0.0023215
0.00229293
0.00229293
0.0023215
0.00229293
0.00229293
0.00232375
0.00229068
0.0023215
0.00229293
0.00229293
0.00229068
0.00228567
0.00225259
0.00228341
0.00228341
0.00225485
0.00225485
0.00228567
0.00225259
0.00228341
0.00228341
0.00225485
0.00225485
0.00228341
0.00225485
0.00225485
0.00228567
0.00225259
0.00228341
0.00225485
0.00225485
0.00225259
0.00224758
0.00221451
0.00224533
0.00224533
0.00221676
0.00221676
0.00224758
0.00221451
0.00224533
0.00224533
0.00221676
0.00221676
0.00224533
0.00221676
0.00221676
0.00224758
0.00221451
0.00224533
0.00221676
0.00221676
0.00221451
0.0022095
0.00217642
0.00220724
0.00220724
0.00217868
0.00217868
0.0022095
0.00217642
0.00220724
0.00220724
0.00217868
0.00217868
0.00220724
0.00217868
0.00217868
0.0022095
0.00217642
0.00220724
0.00217868
0.00217868
0.00217642
0.00217141
0.00213834
0.00216915
0.00216915
0.00214059
0.00214059
0.00217141
0.00213834
0.00216915
0.00216915
0.00214059
0.00214059
0.00216915
0.00214059
0.00214059
0.00217141
0.00213834
0.00216915
0.00214059
0.00214059
0.00213834
0.00213333
0.00210025
0.00213107
0.00213107
0.0021025
0.0021025
0.00213333
0.00210025
0.00213107
0.00213107
0.0021025
0.0021025
0.00213107
0.0021025
0.0021025
0.00213333
0.00210025
0.00213107
0.0021025
0.0021025
0.00210025
0.00209524
0.00206217
0.00209298
0.00209298
0.00206442
0.00206442
0.00209524
0.00206217
0.00209298
0.00209298
0.00206442
0.00206442
0.00209298
0.00206442
0.00206442
0.00209524
0.00206217
0.00209298
0.00206442
0.00206442
0.00206216
0.00205716
0.00202408
0.0020549
0.0020549
0.00202633
0.00202633
0.00205716
0.00202408
0.0020549
0.0020549
0.00202633
0.00202633
0.0020549
0.00202633
0.00202633
0.00205716
0.00202408
0.0020549
0.00202633
0.00202633
0.00202408
0.00201907
0.00198599
0.00201681
0.00201681
0.00198825
0.00198825
0.00201907
0.00198599
0.00201681
0.00201681
0.00198825
0.00198825
0.00201681
0.00198825
0.00198825
0.00201907
0.00198599
0.00201681
0.00198825
0.00198825
0.00198599
0.00198098
0.0019479
0.00197872
0.00197872
0.00195016
0.00195016
0.00198098
0.0019479
0.00197872
0.00197872
0.00195016
0.00195016
0.00197872
0.00195016
0.00195016
0.00198098
0.0019479
0.00197872
0.00195016
0.00195016
0.0019479
0.00194289
0.00190982
0.00194064
0.00194064
0.00191207
0.00191207
0.00194289
0.00190982
0.00194064
0.00194064
0.00191207
0.00191207
0.00194064
0.00191207
0.00191207
0.00194289
0.00190982
0.00194064
0.00191207
0.00191207
0.00190982
0.00190481
0.00187173
0.00190255
0.00190255
0.00187399
0.00187399
0.00190481
0.00187173
0.00190255
0.00190255
0.00187399
0.00187399
0.00190255
0.00187399
0.00187399
0.00190481
0.00187173
0.00190255
0.00187399
0.00187399
0.00187173
0.00186672
0.00183364
0.00186446
0.00186446
0.0018359
0.0018359
0.00186672
0.00183364
0.00186446
0.00186446
0.0018359
0.0018359
0.00186446
0.0018359
0.0018359
0.00186672
0.00183364
0.00186446
0.0018359
0.0018359
0.00183364
0.00182863
0.00179556
0.00182638
0.00182638
0.00179781
0.00179781
0.00182863
0.00179556
0.00182638
0.00182638
0.00179781
0.00179781
0.00182638
0.00179781
0.00179781
0.00182863
0.00179556
0.00182638
0.00179781
0.00179781
0.00179556
0.00179055
0.00175747
0.00178829
0.00178829
0.00175972
0.00175972
0.00179055
0.00175747
0.00178829
0.00178829
0.00175972
0.00175972
0.00178829
0.00175972
0.00175972
0.00179055
0.00175747
0.00178829
0.00175972
0.00175972
0.00175747
0.00175246
0.00171938
0.0017502
0.0017502
0.00172164
0.00172164
0.00175246
0.00171938
0.0017502
0.0017502
0.00172164
0.00172164
0.0017502
0.00172164
0.00172164
0.00175246
0.00171938
0.0017502
0.00172164
0.00172164
0.00171938
0.00171437
0.00168129
0.00171211
0.00171211
0.00168355
0.00168355
0.00171437
0.00168129
0.00171211
0.00171211
0.00168355
0.00168355
0.00171211
0.00168355
0.00168355
0.00171437
0.00168129
0.00171211
0.00168355
0.00168355
0.00168129
0.00167628
0.00164321
0.00167403
0.00167403
0.00164546
0.00164546
0.00167628
0.00164321
0.00167403
0.00167403
0.00164546
0.00164546
0.00167403
0.00164546
0.00164546
0.00167628
0.00164321
0.00167403
0.00164546
0.00164546
0.00164321
0.0016382
0.00160512
0.00163594
0.00163594
0.00160737
0.00160737
0.0016382
0.00160512
0.00163594
0.00163594
0.00160737
0.00160737
0.00163594
0.00160737
0.00160737
0.0016382
0.00160512
0.00163594
0.00160737
0.00160737
0.00160512
0.00160011
0.00156703
0.00159785
0.00159785
0.00156929
0.00156929
0.00160011
0.00156703
0.00159785
0.00159785
0.00156929
0.00156929
0.00159785
0.00156929
0.00156929
0.00160011
0.00156703
0.00159785
0.00156929
0.00156929
0.00156703
0.00156202
0.00152895
0.00155977
0.00155977
0.0015312
0.0015312
0.00156202
0.00152895
0.00155977
0.00155977
0.0015312
0.0015312
0.00155977
0.0015312
0.0015312
0.00156202
0.00152895
0.00155977
0.0015312
0.0015312
0.00152895
0.00152394
0.00149087
0.00152168
0.00152168
0.00149312
0.00149312
0.00152394
0.00149087
0.00152168
0.00152168
0.00149312
0.00149312
0.00152168
0.00149312
0.00149312
0.00152394
0.00149087
0.00152168
0.00149312
0.00149312
0.00149087
0.00148586
0.00145278
0.0014836
0.0014836
0.00145504
0.00145504
0.00148586
0.00145278
0.0014836
0.0014836
0.00145504
0.00145504
0.0014836
0.00145504
0.00145504
0.00148586
0.00145278
0.0014836
0.00145504
0.00145504
0.00145278
0.00144777
0.0014147
0.00144552
0.00144552
0.00141696
0.00141696
0.00144777
0.0014147
0.00144552
0.00144552
0.00141696
0.00141696
0.00144552
0.00141696
0.00141696
0.00144777
0.0014147
0.00144552
0.00141696
0.00141696
0.0014147
0.00140969
0.00137662
0.00140744
0.00140744
0.00137888
0.00137888
0.00140969
0.00137662
0.00140744
0.00140744
0.00137888
0.00137888
0.00140744
0.00137888
0.00137888
0.00140969
0.00137662
0.00140744
0.00137888
0.00137888
0.00137662
0.00137161
0.00133854
0.00136936
0.00136936
0.0013408
0.0013408
0.00137161
0.00133854
0.00136936
0.00136936
0.0013408
0.0013408
0.00136936
0.0013408
0.0013408
0.00137161
0.00133854
0.00136936
0.0013408
0.0013408
0.00133854
0.00133353
0.00130046
0.00133128
0.00133128
0.00130272
0.00130272
0.00133353
0.00130046
0.00133128
0.00133128
0.00130272
0.00130272
0.00133128
0.00130272
0.00130272
0.00133353
0.00130046
0.00133128
0.00130272
0.00130272
0.00130046
0.00129545
0.00126238
0.0012932
0.0012932
0.00126464
0.00126464
0.00129545
0.00126238
0.0012932
0.0012932
0.00126464
0.00126464
0.0012932
0.00126464
0.00126464
0.00129545
0.00126238
0.0012932
0.00126464
0.00126464
0.00126238
0.00125737
0.0012243
0.00125512
0.00125512
0.00122656
0.00122656
0.00125737
0.0012243
0.00125512
0.00125512
0.00122656
0.00122656
0.00125512
0.00122656
0.00122656
0.00125737
0.0012243
0.00125512
0.00122656
0.00122656
0.0012243
0.00121929
0.00118622
0.00121704
0.00121704
0.00118848
0.00118848
0.00121929
0.00118622
0.00121704
0.00121704
0.00118848
0.00118848
0.00121704
0.00118848
0.00118848
0.00121929
0.00118622
0.00121704
0.00118848
0.00118848
0.00118622
0.00118121
0.00114814
0.00117896
0.00117896
0.0011504
0.0011504
0.00118121
0.00114814
0.00117896
0.00117896
0.0011504
0.0011504
0.00117896
0.0011504
0.0011504
0.00118121
0.00114814
0.00117896
0.0011504
0.0011504
0.00114814
0.00114313
0.00111006
0.00114088
0.00114088
0.00111232
0.00111232
0.00114313
0.00111006
0.00114088
0.00114088
0.00111232
0.00111232
0.00114088
0.00111232
0.00111232
0.00114313
0.00111006
0.00114088
0.00111232
0.00111232
0.00111006
0.00110506
0.00107199
0.0011028
0.0011028
0.00107424
0.00107424
0.00110506
0.00107199
0.0011028
0.0011028
0.00107424
0.00107424
0.0011028
0.00107424
0.00107424
0.00110506
0.00107199
0.0011028
0.00107424
0.00107424
0.00107199
0.00106698
0.00103391
0.00106472
0.00106472
0.00103616
0.00103616
0.00106698
0.00103391
0.00106472
0.00106472
0.00103616
0.00103616
0.00106472
0.00103616
0.00103616
0.00106698
0.00103391
0.00106472
0.00103616
0.00103616
0.00103391
0.0010289
0.000995835
0.00102664
0.00102664
0.000998089
0.000998089
0.0010289
0.000995835
0.00102664
0.00102664
0.000998089
0.000998088
0.00102664
0.000998089
0.000998089
0.0010289
0.000995834
0.00102664
0.000998088
0.000998088
0.000995834
0.000990827
0.000957762
0.00098857
0.00098857
0.000960016
0.000960016
0.000990827
0.000957762
0.00098857
0.00098857
0.000960016
0.000960016
0.00098857
0.000960016
0.000960016
0.000990826
0.000957762
0.00098857
0.000960015
0.000960015
0.000957762
0.000952754
0.00091969
0.000950498
0.000950498
0.000921944
0.000921944
0.000952754
0.000919691
0.000950498
0.000950498
0.000921944
0.000921944
0.000950498
0.000921944
0.000921945
0.000952754
0.000919691
0.000950498
0.000921945
0.000921945
0.000919691
0.000914683
0.000881618
0.000912426
0.000912426
0.000883872
0.000883872
0.000914683
0.000881619
0.000912426
0.000912426
0.000883872
0.000883872
0.000912427
0.000883872
0.000883873
0.000914683
0.000881619
0.000912427
0.000883872
0.000883872
0.000881619
0.000876611
0.000843547
0.000874354
0.000874354
0.000845801
0.000845801
0.000876611
0.000843547
0.000874354
0.000874354
0.0008458
0.000845801
0.000874354
0.000845801
0.000845801
0.000876611
0.000843547
0.000874354
0.000845801
0.000845801
0.000843547
0.000838539
0.000805476
0.000836283
0.000836283
0.000807729
0.000807729
0.000838539
0.000805476
0.000836283
0.000836283
0.000807729
0.000807729
0.000836283
0.000807729
0.000807729
0.000838539
0.000805476
0.000836283
0.000807729
0.000807729
0.000805476
0.000800468
0.000767404
0.000798211
0.000798211
0.000769658
0.000769658
0.000800468
0.000767405
0.000798211
0.000798212
0.000769658
0.000769658
0.000798212
0.000769658
0.000769658
0.000800468
0.000767404
0.000798211
0.000769658
0.000769658
0.000767405
0.000762397
0.000729334
0.00076014
0.00076014
0.000731587
0.000731587
0.000762397
0.000729334
0.00076014
0.00076014
0.000731587
0.000731587
0.000760141
0.000731587
0.000731587
0.000762397
0.000729334
0.00076014
0.000731587
0.000731587
0.000729334
0.000724326
0.000691263
0.00072207
0.00072207
0.000693517
0.000693517
0.000724326
0.000691263
0.00072207
0.00072207
0.000693517
0.000693517
0.00072207
0.000693517
0.000693517
0.000724326
0.000691263
0.00072207
0.000693517
0.000693517
0.000691263
0.000686256
0.000653193
0.000684
0.000683999
0.000655447
0.000655447
0.000686256
0.000653194
0.000683999
0.000684
0.000655447
0.000655447
0.000684
0.000655447
0.000655447
0.000686256
0.000653193
0.000683999
0.000655447
0.000655447
0.000653193
0.000648186
0.000615123
0.00064593
0.00064593
0.000617376
0.000617376
0.000648186
0.000615123
0.000645929
0.00064593
0.000617376
0.000617376
0.00064593
0.000617377
0.000617377
0.000648186
0.000615123
0.00064593
0.000617376
0.000617377
0.000615123
0.000610115
0.000577051
0.000607859
0.000607859
0.000579305
0.000579305
0.000610115
0.000577051
0.000607859
0.000607859
0.000579305
0.000579305
0.000607859
0.000579305
0.000579305
0.000610116
0.000577051
0.000607859
0.000579305
0.000579305
0.000577051
0.000572044
0.000538979
0.000569787
0.000569787
0.000541233
0.000541233
0.000572044
0.000538979
0.000569787
0.000569787
0.000541233
0.000541233
0.000569787
0.000541233
0.000541233
0.000572044
0.000538979
0.000569787
0.000541233
0.000541233
0.000538979
0.000533972
0.000500908
0.000531715
0.000531715
0.000503162
0.000503162
0.000533971
0.000500908
0.000531715
0.000531715
0.000503162
0.000503162
0.000531715
0.000503162
0.000503162
0.000533972
0.000500908
0.000531715
0.000503162
0.000503162
0.000500908
0.000495899
0.000462838
0.000493643
0.000493643
0.000465091
0.000465091
0.000495899
0.000462838
0.000493643
0.000493643
0.000465091
0.000465091
0.000493643
0.000465091
0.000465091
0.000495899
0.000462838
0.000493643
0.000465091
0.000465091
0.000462838
0.000457828
0.000424766
0.000455572
0.000455572
0.000427019
0.000427019
0.000457828
0.000424767
0.000455572
0.000455572
0.000427019
0.000427019
0.000455572
0.000427019
0.000427019
0.000457828
0.000424766
0.000455572
0.000427019
0.000427019
0.000424766
0.00041976
0.000386695
0.000417503
0.000417503
0.000388948
0.000388948
0.00041976
0.000386695
0.000417503
0.000417503
0.000388948
0.000388948
0.000417503
0.000388948
0.000388949
0.00041976
0.000386695
0.000417503
0.000388948
0.000388948
0.000386695
0.000381687
0.000348624
0.000379432
0.000379432
0.000350878
0.000350878
0.000381687
0.000348625
0.000379432
0.000379432
0.000350878
0.000350878
0.000379432
0.000350878
0.000350878
0.000381687
0.000348624
0.000379432
0.000350878
0.000350878
0.000348624
0.000343613
0.00031055
0.000341358
0.000341358
0.000312802
0.000312802
0.000343613
0.00031055
0.000341358
0.000341358
0.000312802
0.000312802
0.000341358
0.000312802
0.000312802
0.000343613
0.00031055
0.000341358
0.000312802
0.000312802
0.00031055
0.000305539
0.000272472
0.000303284
0.000303284
0.000274724
0.000274724
0.000305539
0.000272472
0.000303284
0.000303284
0.000274724
0.000274724
0.000303284
0.000274724
0.000274724
0.000305539
0.000272472
0.000303284
0.000274724
0.000274724
0.000272472
0.000267457
0.000234394
0.000265205
0.000265205
0.000236645
0.000236644
0.000267457
0.000234394
0.000265205
0.000265205
0.000236644
0.000236645
0.000265205
0.000236644
0.000236645
0.000267457
0.000234394
0.000265205
0.000236644
0.000236644
0.000234394
0.000229374
0.000196312
0.000227124
0.000227124
0.000198561
0.00019856
0.000229373
0.000196312
0.000227124
0.000227124
0.00019856
0.00019856
0.000227124
0.000198561
0.000198561
0.000229374
0.000196312
0.000227124
0.00019856
0.00019856
0.000196312
0.000191284
0.000158229
0.000189041
0.000189041
0.000160474
0.000160474
0.000191284
0.000158229
0.000189041
0.000189041
0.000160474
0.000160474
0.000189041
0.000160474
0.000160474
0.000191284
0.000158229
0.000189041
0.000160474
0.000160474
0.000158229
0.000153184
0.000120136
0.000150951
0.000150951
0.000122375
0.000122375
0.000153184
0.000120136
0.000150951
0.000150951
0.000122375
0.000122375
0.000150951
0.000122375
0.000122375
0.000153184
0.000120135
0.000150951
0.000122375
0.000122375
0.000120136
0.000115067
8.20287e-05
0.000112851
0.000112851
8.42628e-05
8.4263e-05
0.000115067
8.20296e-05
0.000112851
0.000112851
8.42622e-05
8.4262e-05
0.000112851
8.42628e-05
8.42623e-05
0.000115066
8.2028e-05
0.000112851
8.42619e-05
8.42621e-05
8.20282e-05
7.69247e-05
4.40024e-05
7.47368e-05
7.47371e-05
4.6249e-05
4.62496e-05
7.69248e-05
4.40034e-05
7.4736e-05
7.47355e-05
4.62471e-05
4.62462e-05
7.47361e-05
4.62482e-05
4.62461e-05
7.6924e-05
4.39998e-05
7.47356e-05
4.62455e-05
4.62448e-05
4.39995e-05
3.89385e-05
9.51514e-06
3.69492e-05
3.69497e-05
1.18512e-05
1.18505e-05
3.8939e-05
9.5141e-06
3.69474e-05
3.69454e-05
1.18504e-05
1.18464e-05
3.69448e-05
1.18485e-05
1.18445e-05
3.89353e-05
9.51091e-06
3.6944e-05
1.18465e-05
1.18463e-05
9.50964e-06
6.1416e-06
6.28553e-06
6.28412e-06
6.14136e-06
6.28285e-06
6.28126e-06
6.27805e-06
6.27657e-06
6.27578e-06
6.27999e-06
6.13899e-06
6.28025e-06
0.00367619
0.00368173
0.00367898
0.00367895
0.00369846
0.003684
0.00370824
0.00368074
0.00369827
0.00368384
0.00368069
0.00370829
0.00368992
0.00371162
0.00371143
0.00364465
0.00366013
0.00366367
0.00363663
0.0036369
0.00363996
0.00364473
0.00365978
0.00366378
0.00363695
0.0036619
0.00366183
0.00366182
0.00363223
0.00363206
0.00363226
0.00363219
0.00364456
0.00365895
0.00366249
0.00365117
0.00366472
0.00364101
0.00365198
0.00363709
0.00363997
0.00364445
0.00366242
0.00365849
0.00365119
0.00366467
0.00365195
0.00364099
0.00366409
0.00366398
0.00364778
0.00364074
0.0036407
0.00361775
0.00363074
0.00363034
0.00361573
0.00362788
0.00361465
0.0036179
0.00363049
0.00363012
0.00361567
0.00362338
0.0036236
0.00362355
0.0035976
0.00359763
0.00359763
0.00359769
0.0036153
0.00362927
0.00362297
0.00361518
0.00362738
0.00361585
0.00361463
0.00362809
0.00361487
0.00361536
0.003623
0.0036298
0.00361495
0.00362748
0.00361464
0.00361617
0.00363118
0.00363137
0.00361401
0.00361658
0.00361648
0.0035752
0.0035901
0.00359085
0.00357373
0.00358882
0.00357313
0.00357509
0.00358986
0.00359083
0.00357383
0.00358748
0.00358747
0.00358749
0.00355318
0.0035532
0.00355319
0.00355322
0.00357346
0.00359003
0.00358651
0.00357593
0.00358894
0.00357433
0.00357556
0.00358909
0.00357297
0.00357347
0.00358653
0.00359018
0.00357592
0.00358897
0.00357557
0.00357437
0.00359042
0.0035905
0.00357294
0.00357436
0.00357427
0.0035277
0.00354465
0.00354605
0.00352648
0.00354397
0.00352614
0.0035278
0.00354455
0.00354598
0.00352652
0.00354143
0.00354143
0.00354145
0.00350588
0.00350587
0.00350591
0.00350591
0.00352649
0.00354484
0.00354075
0.00352947
0.00354434
0.00352678
0.00352904
0.00354388
0.003526
0.00352653
0.00354079
0.00354485
0.00352932
0.00354433
0.00352904
0.00352685
0.00354483
0.00354482
0.00352623
0.00352674
0.0035267
0.00347931
0.00349664
0.00349784
0.00347824
0.00349612
0.0034781
0.00347938
0.0034967
0.00349794
0.0034782
0.00349387
0.0034939
0.0034939
0.00345759
0.00345761
0.00345759
0.00345758
0.00347844
0.00349719
0.0034933
0.0034816
0.00349665
0.00347852
0.00348132
0.00349644
0.00347799
0.00347846
0.00349333
0.00349689
0.00348155
0.0034967
0.00348132
0.00347881
0.00349679
0.00349681
0.00347829
0.00347845
0.00347844
0.00343069
0.00344804
0.00344907
0.00342997
0.00344795
0.00342999
0.00343074
0.00344811
0.00344914
0.00342994
0.00344556
0.00344553
0.00344553
0.00340954
0.00340954
0.00340953
0.00340951
0.00343011
0.0034489
0.00344502
0.00343337
0.00344818
0.00343042
0.00343304
0.00344782
0.00342978
0.00343012