/*--------------------------------*- C++ -*----------------------------------*\
| =========                 |                                                 |
| \\      /  F ield         | OpenFOAM: The Open Source CFD Toolbox           |
|  \\    /   O peration     | Version:  v1906                                 |
|   \\  /    A nd           | Web:      www.OpenFOAM.com                      |
|    \\/     M anipulation  |                                                 |
\*---------------------------------------------------------------------------*/
FoamFile
{
    version     2.0;
    format      ascii;
    class       volScalarField;
    location    "12.5";
    object      p;
}
// * * * * * * * * * * * * * * * * * * * * * * * * * * * * * * * * * * * * * //

dimensions      [0 2 -2 0 0 0 0];


internalField   nonuniform List<scalar> 
171728
(
0.0053377
0.0053389
0.0053386
0.005342
0.00527521
0.0052766
0.00527654
0.00527948
0.00520915
0.00520933
0.00520932
0.00521212
0.00514671
0.00514635
0.00514635
0.00514974
0.00508958
0.00508948
0.00508948
0.00509284
0.00503306
0.00503301
0.00503301
0.00503637
0.0049766
0.00497655
0.00497655
0.00497991
0.00492014
0.00492009
0.00492009
0.00492344
0.00486367
0.00486362
0.00486362
0.00486698
0.0048072
0.00480715
0.00480715
0.00481051
0.00475073
0.00475068
0.00475068
0.00475404
0.00469426
0.00469421
0.00469421
0.00469757
0.00463779
0.00463774
0.00463774
0.00464109
0.00458131
0.00458127
0.00458127
0.00458462
0.00452484
0.00452479
0.00452479
0.00452814
0.00446836
0.00446832
0.00446832
0.00447167
0.00441189
0.00441184
0.00441184
0.00441519
0.00435541
0.00435537
0.00435536
0.00435872
0.00429894
0.00429889
0.00429889
0.00430224
0.00424246
0.00424241
0.00424241
0.00424577
0.00418599
0.00418594
0.00418594
0.00418929
0.00412951
0.00412947
0.00412947
0.00413282
0.00407304
0.00407299
0.00407299
0.00407635
0.00401657
0.00401652
0.00401652
0.00401987
0.0039601
0.00396005
0.00396005
0.0039634
0.00390362
0.00390358
0.00390358
0.00390693
0.00384715
0.00384711
0.00384711
0.00385046
0.00379068
0.00379063
0.00379063
0.00379399
0.00373421
0.00373416
0.00373416
0.00373752
0.00367774
0.00367769
0.00367769
0.00368105
0.00362127
0.00362122
0.00362122
0.00362458
0.0035648
0.00356475
0.00356475
0.00356811
0.00350833
0.00350828
0.00350828
0.00351164
0.00345186
0.00345181
0.00345181
0.00345517
0.00339539
0.00339534
0.00339534
0.0033987
0.00333892
0.00333887
0.00333887
0.00334223
0.00328245
0.0032824
0.0032824
0.00328576
0.00322598
0.00322593
0.00322593
0.00322929
0.00316951
0.00316946
0.00316946
0.00317282
0.00311304
0.00311299
0.00311299
0.00311635
0.00305657
0.00305653
0.00305653
0.00305988
0.0030001
0.00300006
0.00300006
0.00300341
0.00294363
0.00294359
0.00294359
0.00294694
0.00288717
0.00288712
0.00288712
0.00289047
0.0028307
0.00283065
0.00283065
0.002834
0.00277423
0.00277418
0.00277418
0.00277754
0.00271776
0.00271771
0.00271771
0.00272107
0.00266129
0.00266124
0.00266124
0.0026646
0.00260482
0.00260477
0.00260477
0.00260813
0.00254835
0.00254831
0.00254831
0.00255166
0.00249188
0.00249184
0.00249184
0.00249519
0.00243542
0.00243537
0.00243537
0.00243872
0.00237895
0.0023789
0.0023789
0.00238225
0.00232248
0.00232243
0.00232243
0.00232578
0.00226601
0.00226596
0.00226596
0.00226931
0.00220953
0.00220949
0.00220949
0.00221284
0.00215306
0.00215302
0.00215302
0.00215637
0.00209659
0.00209654
0.00209654
0.0020999
0.00204012
0.00204007
0.00204007
0.00204343
0.00198365
0.0019836
0.0019836
0.00198695
0.00192717
0.00192712
0.00192712
0.00193048
0.0018707
0.00187065
0.00187065
0.001874
0.00181422
0.00181418
0.00181418
0.00181753
0.00175775
0.0017577
0.0017577
0.00176106
0.00170127
0.00170122
0.00170122
0.00170458
0.0016448
0.00164475
0.00164475
0.0016481
0.00158832
0.00158827
0.00158827
0.00159163
0.00153184
0.0015318
0.0015318
0.00153515
0.00147536
0.00147532
0.00147532
0.00147867
0.00141889
0.00141884
0.00141884
0.00142219
0.00136241
0.00136236
0.00136236
0.00136571
0.00130593
0.00130588
0.00130588
0.00130924
0.00124945
0.0012494
0.0012494
0.00125276
0.00119297
0.00119292
0.00119292
0.00119628
0.00113649
0.00113644
0.00113644
0.00113979
0.00108
0.00107995
0.00107995
0.00108331
0.00102352
0.00102347
0.00102347
0.00102683
0.000967035
0.000966988
0.000966988
0.000970342
0.00091055
0.000910503
0.000910503
0.000913857
0.000854064
0.000854017
0.000854016
0.000857371
0.000797576
0.000797529
0.000797529
0.000800883
0.000741088
0.000741041
0.000741041
0.000744395
0.0006846
0.000684553
0.000684553
0.000687907
0.000628111
0.000628064
0.000628064
0.000631418
0.00057162
0.000571573
0.000571573
0.000574927
0.000515129
0.000515082
0.000515082
0.000518436
0.000458637
0.00045859
0.00045859
0.000461944
0.000402146
0.000402099
0.000402099
0.000405453
0.000345654
0.000345607
0.000345607
0.000348962
0.000289162
0.000289115
0.000289115
0.000292469
0.000232671
0.000232623
0.000232623
0.000235975
0.000176169
0.000176139
0.000176139
0.000179428
0.000119647
0.000119511
0.00011951
0.000122741
6.37245e-05
6.31814e-05
6.3177e-05
6.6316e-05
1.48001e-05
1.54032e-05
1.54017e-05
1.53229e-05
0.00535123
0.00535113
0.00535089
0.00535085
0.00535115
0.00535101
0.00535145
0.00535131
0.00535146
0.00535125
0.00535089
0.00535085
0.00535079
0.00535086
0.0053508
0.00535082
0.00534242
0.00528784
0.00533909
0.0053389
0.00529128
0.00529124
0.00534197
0.00528778
0.00533909
0.00533895
0.00529128
0.00529118
0.00533888
0.00529122
0.00529119
0.00534175
0.00528769
0.00533879
0.00529112
0.00529115
0.00528772
0.00527958
0.00522107
0.00527664
0.00527661
0.00522569
0.00522568
0.00527954
0.00522107
0.00527664
0.00527657
0.00522569
0.00522567
0.00527657
0.00522568
0.00522566
0.00527947
0.00522105
0.00527655
0.00522566
0.00522566
0.00522105
0.00521214
0.00515727
0.00520934
0.00520933
0.005161
0.00516099
0.00521213
0.00515726
0.00520934
0.00520932
0.00516099
0.00516099
0.00520932
0.00516099
0.00516098
0.00521212
0.00515726
0.00520932
0.00516098
0.00516098
0.00515726
0.00514975
0.00510024
0.00514636
0.00514635
0.00510362
0.00510362
0.00514974
0.00510024
0.00514635
0.00514635
0.00510362
0.00510362
0.00514635
0.00510362
0.00510362
0.00514974
0.00510024
0.00514635
0.00510362
0.00510362
0.00510024
0.00509284
0.00504376
0.00508948
0.00508948
0.00504713
0.00504713
0.00509284
0.00504376
0.00508948
0.00508948
0.00504713
0.00504713
0.00508948
0.00504713
0.00504713
0.00509284
0.00504376
0.00508948
0.00504713
0.00504713
0.00504376
0.00503637
0.0049873
0.00503301
0.00503301
0.00499067
0.00499067
0.00503636
0.0049873
0.00503301
0.00503301
0.00499067
0.00499067
0.00503301
0.00499067
0.00499067
0.00503637
0.00498731
0.00503301
0.00499067
0.00499067
0.0049873
0.00497991
0.00493084
0.00497655
0.00497655
0.00493421
0.00493421
0.00497991
0.00493084
0.00497655
0.00497655
0.00493421
0.00493421
0.00497655
0.00493421
0.00493421
0.00497991
0.00493084
0.00497655
0.00493421
0.00493421
0.00493084
0.00492344
0.00487438
0.00492009
0.00492009
0.00487774
0.00487774
0.00492344
0.00487438
0.00492009
0.00492009
0.00487774
0.00487774
0.00492009
0.00487774
0.00487774
0.00492344
0.00487438
0.00492009
0.00487774
0.00487774
0.00487438
0.00486698
0.00481791
0.00486362
0.00486362
0.00482127
0.00482127
0.00486698
0.00481791
0.00486362
0.00486362
0.00482127
0.00482127
0.00486362
0.00482127
0.00482127
0.00486698
0.00481791
0.00486362
0.00482127
0.00482127
0.00481791
0.00481051
0.00476144
0.00480716
0.00480715
0.0047648
0.0047648
0.00481051
0.00476144
0.00480715
0.00480715
0.0047648
0.0047648
0.00480715
0.0047648
0.0047648
0.00481051
0.00476144
0.00480715
0.0047648
0.0047648
0.00476144
0.00475404
0.00470497
0.00475068
0.00475068
0.00470833
0.00470833
0.00475404
0.00470497
0.00475068
0.00475068
0.00470833
0.00470833
0.00475068
0.00470833
0.00470833
0.00475404
0.00470497
0.00475068
0.00470833
0.00470833
0.00470497
0.00469757
0.00464849
0.00469421
0.00469421
0.00465186
0.00465186
0.00469756
0.00464849
0.00469421
0.00469421
0.00465186
0.00465186
0.00469421
0.00465186
0.00465186
0.00469757
0.00464849
0.00469421
0.00465186
0.00465186
0.00464849
0.00464109
0.00459202
0.00463774
0.00463774
0.00459538
0.00459538
0.00464109
0.00459202
0.00463774
0.00463774
0.00459538
0.00459538
0.00463774
0.00459538
0.00459538
0.00464109
0.00459202
0.00463774
0.00459538
0.00459538
0.00459202
0.00458462
0.00453555
0.00458127
0.00458127
0.00453891
0.00453891
0.00458462
0.00453555
0.00458126
0.00458127
0.00453891
0.00453891
0.00458127
0.00453891
0.00453891
0.00458462
0.00453555
0.00458127
0.00453891
0.00453891
0.00453555
0.00452814
0.00447907
0.00452479
0.00452479
0.00448243
0.00448243
0.00452814
0.00447907
0.00452479
0.00452479
0.00448243
0.00448243
0.00452479
0.00448243
0.00448243
0.00452814
0.00447907
0.00452479
0.00448243
0.00448243
0.00447907
0.00447167
0.00442259
0.00446832
0.00446832
0.00442596
0.00442596
0.00447167
0.00442259
0.00446832
0.00446832
0.00442596
0.00442596
0.00446832
0.00442596
0.00442596
0.00447167
0.00442259
0.00446832
0.00442596
0.00442596
0.00442259
0.00441519
0.00436612
0.00441184
0.00441184
0.00436948
0.00436948
0.00441519
0.00436612
0.00441184
0.00441184
0.00436948
0.00436948
0.00441184
0.00436948
0.00436948
0.00441519
0.00436612
0.00441184
0.00436948
0.00436948
0.00436612
0.00435872
0.00430965
0.00435537
0.00435537
0.00431301
0.00431301
0.00435872
0.00430965
0.00435536
0.00435536
0.00431301
0.00431301
0.00435536
0.00431301
0.00431301
0.00435872
0.00430964
0.00435536
0.00431301
0.00431301
0.00430964
0.00430224
0.00425317
0.00429889
0.00429889
0.00425653
0.00425653
0.00430224
0.00425317
0.00429889
0.00429889
0.00425653
0.00425653
0.00429889
0.00425653
0.00425653
0.00430224
0.00425317
0.00429889
0.00425653
0.00425653
0.00425317
0.00424577
0.0041967
0.00424241
0.00424241
0.00420006
0.00420006
0.00424577
0.0041967
0.00424241
0.00424242
0.00420006
0.00420006
0.00424242
0.00420006
0.00420006
0.00424577
0.00419669
0.00424241
0.00420006
0.00420006
0.00419669
0.00418929
0.00414022
0.00418594
0.00418594
0.00414358
0.00414358
0.00418929
0.00414022
0.00418594
0.00418594
0.00414358
0.00414358
0.00418594
0.00414358
0.00414358
0.00418929
0.00414022
0.00418594
0.00414358
0.00414358
0.00414022
0.00413282
0.00408375
0.00412947
0.00412947
0.00408711
0.00408711
0.00413282
0.00408375
0.00412947
0.00412947
0.00408711
0.00408711
0.00412947
0.00408711
0.00408711
0.00413282
0.00408375
0.00412947
0.00408711
0.00408711
0.00408375
0.00407635
0.00402728
0.00407299
0.00407299
0.00403064
0.00403064
0.00407635
0.00402728
0.00407299
0.00407299
0.00403064
0.00403064
0.00407299
0.00403064
0.00403064
0.00407635
0.00402728
0.00407299
0.00403064
0.00403064
0.00402728
0.00401987
0.0039708
0.00401652
0.00401652
0.00397417
0.00397417
0.00401987
0.0039708
0.00401652
0.00401652
0.00397417
0.00397417
0.00401652
0.00397417
0.00397417
0.00401987
0.0039708
0.00401652
0.00397417
0.00397417
0.0039708
0.0039634
0.00391433
0.00396005
0.00396005
0.00391769
0.00391769
0.0039634
0.00391433
0.00396005
0.00396005
0.00391769
0.00391769
0.00396005
0.00391769
0.0039177
0.0039634
0.00391433
0.00396005
0.00391769
0.0039177
0.00391433
0.00390693
0.00385786
0.00390358
0.00390358
0.00386122
0.00386122
0.00390693
0.00385786
0.00390358
0.00390358
0.00386122
0.00386122
0.00390358
0.00386122
0.00386122
0.00390693
0.00385786
0.00390358
0.00386122
0.00386122
0.00385786
0.00385046
0.00380139
0.00384711
0.00384711
0.00380475
0.00380475
0.00385046
0.00380139
0.00384711
0.00384711
0.00380475
0.00380475
0.00384711
0.00380475
0.00380475
0.00385046
0.00380139
0.00384711
0.00380475
0.00380475
0.00380139
0.00379399
0.00374492
0.00379063
0.00379063
0.00374828
0.00374828
0.00379399
0.00374492
0.00379063
0.00379063
0.00374828
0.00374828
0.00379063
0.00374828
0.00374828
0.00379399
0.00374492
0.00379063
0.00374828
0.00374828
0.00374492
0.00373752
0.00368845
0.00373416
0.00373416
0.00369181
0.00369181
0.00373752
0.00368845
0.00373416
0.00373416
0.00369181
0.00369181
0.00373416
0.00369181
0.00369181
0.00373752
0.00368845
0.00373416
0.00369181
0.00369181
0.00368845
0.00368105
0.00363198
0.00367769
0.00367769
0.00363534
0.00363534
0.00368105
0.00363198
0.00367769
0.00367769
0.00363534
0.00363534
0.00367769
0.00363534
0.00363534
0.00368105
0.00363198
0.00367769
0.00363534
0.00363534
0.00363198
0.00362458
0.00357551
0.00362122
0.00362122
0.00357887
0.00357887
0.00362458
0.00357551
0.00362122
0.00362122
0.00357887
0.00357887
0.00362122
0.00357887
0.00357887
0.00362458
0.00357551
0.00362122
0.00357887
0.00357887
0.00357551
0.00356811
0.00351904
0.00356475
0.00356475
0.0035224
0.0035224
0.00356811
0.00351904
0.00356475
0.00356475
0.0035224
0.0035224
0.00356475
0.0035224
0.0035224
0.00356811
0.00351904
0.00356475
0.0035224
0.0035224
0.00351904
0.00351164
0.00346257
0.00350828
0.00350828
0.00346593
0.00346593
0.00351164
0.00346257
0.00350828
0.00350828
0.00346593
0.00346593
0.00350828
0.00346593
0.00346593
0.00351164
0.00346257
0.00350828
0.00346593
0.00346593
0.00346257
0.00345516
0.0034061
0.00345181
0.00345181
0.00340946
0.00340946
0.00345516
0.0034061
0.00345181
0.00345181
0.00340946
0.00340946
0.00345181
0.00340946
0.00340946
0.00345517
0.0034061
0.00345181
0.00340946
0.00340946
0.0034061
0.0033987
0.00334963
0.00339534
0.00339534
0.00335299
0.00335299
0.0033987
0.00334963
0.00339534
0.00339534
0.00335299
0.00335299
0.00339534
0.00335299
0.00335299
0.0033987
0.00334963
0.00339534
0.00335299
0.00335299
0.00334963
0.00334223
0.00329316
0.00333887
0.00333887
0.00329652
0.00329652
0.00334223
0.00329316
0.00333887
0.00333887
0.00329652
0.00329652
0.00333887
0.00329652
0.00329652
0.00334223
0.00329316
0.00333887
0.00329652
0.00329652
0.00329316
0.00328576
0.00323669
0.0032824
0.0032824
0.00324005
0.00324005
0.00328576
0.00323669
0.0032824
0.0032824
0.00324005
0.00324005
0.0032824
0.00324005
0.00324005
0.00328576
0.00323669
0.0032824
0.00324005
0.00324005
0.00323669
0.00322929
0.00318022
0.00322593
0.00322593
0.00318358
0.00318358
0.00322929
0.00318022
0.00322593
0.00322593
0.00318358
0.00318358
0.00322593
0.00318358
0.00318358
0.00322929
0.00318022
0.00322593
0.00318358
0.00318358
0.00318022
0.00317282
0.00312375
0.00316946
0.00316946
0.00312711
0.00312711
0.00317282
0.00312375
0.00316946
0.00316946
0.00312711
0.00312711
0.00316946
0.00312711
0.00312711
0.00317282
0.00312375
0.00316946
0.00312711
0.00312711
0.00312375
0.00311635
0.00306728
0.003113
0.003113
0.00307064
0.00307064
0.00311635
0.00306728
0.00311299
0.00311299
0.00307064
0.00307064
0.00311299
0.00307064
0.00307064
0.00311635
0.00306728
0.00311299
0.00307064
0.00307064
0.00306728
0.00305988
0.00301081
0.00305653
0.00305653
0.00301417
0.00301417
0.00305988
0.00301081
0.00305653
0.00305653
0.00301417
0.00301417
0.00305653
0.00301417
0.00301417
0.00305988
0.00301081
0.00305653
0.00301417
0.00301417
0.00301081
0.00300341
0.00295434
0.00300006
0.00300006
0.0029577
0.0029577
0.00300341
0.00295434
0.00300006
0.00300006
0.0029577
0.0029577
0.00300006
0.0029577
0.0029577
0.00300341
0.00295434
0.00300006
0.0029577
0.0029577
0.00295434
0.00294694
0.00289787
0.00294359
0.00294359
0.00290124
0.00290123
0.00294694
0.00289787
0.00294359
0.00294359
0.00290123
0.00290124
0.00294359
0.00290123
0.00290124
0.00294694
0.00289787
0.00294359
0.00290124
0.00290123
0.00289787
0.00289047
0.0028414
0.00288712
0.00288712
0.00284477
0.00284477
0.00289047
0.0028414
0.00288712
0.00288712
0.00284477
0.00284477
0.00288712
0.00284477
0.00284477
0.00289047
0.0028414
0.00288712
0.00284477
0.00284477
0.0028414
0.002834
0.00278493
0.00283065
0.00283065
0.0027883
0.0027883
0.002834
0.00278494
0.00283065
0.00283065
0.0027883
0.0027883
0.00283065
0.0027883
0.0027883
0.002834
0.00278493
0.00283065
0.0027883
0.0027883
0.00278493
0.00277754
0.00272847
0.00277418
0.00277418
0.00273183
0.00273183
0.00277754
0.00272847
0.00277418
0.00277418
0.00273183
0.00273183
0.00277418
0.00273183
0.00273183
0.00277753
0.00272847
0.00277418
0.00273183
0.00273183
0.00272847
0.00272107
0.002672
0.00271771
0.00271771
0.00267536
0.00267536
0.00272107
0.002672
0.00271771
0.00271771
0.00267536
0.00267536
0.00271771
0.00267536
0.00267536
0.00272107
0.002672
0.00271771
0.00267536
0.00267536
0.002672
0.0026646
0.00261553
0.00266124
0.00266124
0.00261889
0.00261889
0.0026646
0.00261553
0.00266124
0.00266124
0.00261889
0.00261889
0.00266124
0.00261889
0.00261889
0.0026646
0.00261553
0.00266124
0.00261889
0.00261889
0.00261553
0.00260813
0.00255906
0.00260477
0.00260477
0.00256242
0.00256242
0.00260813
0.00255906
0.00260477
0.00260477
0.00256242
0.00256242
0.00260477
0.00256242
0.00256242
0.00260813
0.00255906
0.00260477
0.00256242
0.00256242
0.00255906
0.00255166
0.00250259
0.00254831
0.00254831
0.00250595
0.00250595
0.00255166
0.00250259
0.00254831
0.00254831
0.00250595
0.00250595
0.00254831
0.00250595
0.00250595
0.00255166
0.00250259
0.00254831
0.00250595
0.00250596
0.00250259
0.00249519
0.00244612
0.00249184
0.00249184
0.00244949
0.00244949
0.00249519
0.00244612
0.00249184
0.00249184
0.00244949
0.00244949
0.00249184
0.00244949
0.00244949
0.00249519
0.00244612
0.00249184
0.00244949
0.00244949
0.00244612
0.00243872
0.00238965
0.00243537
0.00243537
0.00239302
0.00239302
0.00243872
0.00238965
0.00243537
0.00243537
0.00239302
0.00239302
0.00243537
0.00239302
0.00239302
0.00243872
0.00238965
0.00243537
0.00239302
0.00239302
0.00238965
0.00238225
0.00233318
0.0023789
0.0023789
0.00233655
0.00233655
0.00238225
0.00233318
0.0023789
0.0023789
0.00233655
0.00233655
0.0023789
0.00233655
0.00233655
0.00238225
0.00233318
0.0023789
0.00233655
0.00233655
0.00233318
0.00232578
0.00227671
0.00232243
0.00232243
0.00228008
0.00228008
0.00232578
0.00227671
0.00232243
0.00232243
0.00228008
0.00228008
0.00232243
0.00228008
0.00228008
0.00232578
0.00227671
0.00232243
0.00228008
0.00228008
0.00227671
0.00226931
0.00222024
0.00226596
0.00226596
0.00222361
0.00222361
0.00226931
0.00222024
0.00226596
0.00226596
0.0022236
0.0022236
0.00226596
0.00222361
0.00222361
0.00226931
0.00222024
0.00226596
0.0022236
0.00222361
0.00222024
0.00221284
0.00216377
0.00220949
0.00220949
0.00216713
0.00216713
0.00221284
0.00216377
0.00220949
0.00220949
0.00216713
0.00216713
0.00220949
0.00216713
0.00216713
0.00221284
0.00216377
0.00220949
0.00216713
0.00216713
0.00216377
0.00215637
0.0021073
0.00215302
0.00215302
0.00211066
0.00211066
0.00215637
0.0021073
0.00215302
0.00215302
0.00211066
0.00211066
0.00215302
0.00211066
0.00211066
0.00215637
0.0021073
0.00215302
0.00211066
0.00211066
0.0021073
0.0020999
0.00205083
0.00209654
0.00209654
0.00205419
0.00205419
0.0020999
0.00205083
0.00209654
0.00209654
0.00205419
0.00205419
0.00209654
0.00205419
0.00205419
0.0020999
0.00205083
0.00209654
0.00205419
0.00205419
0.00205083
0.00204343
0.00199435
0.00204007
0.00204007
0.00199772
0.00199772
0.00204343
0.00199435
0.00204007
0.00204007
0.00199772
0.00199772
0.00204007
0.00199772
0.00199772
0.00204342
0.00199435
0.00204007
0.00199772
0.00199772
0.00199435
0.00198695
0.00193788
0.0019836
0.0019836
0.00194124
0.00194124
0.00198695
0.00193788
0.0019836
0.0019836
0.00194124
0.00194124
0.0019836
0.00194124
0.00194124
0.00198695
0.00193788
0.0019836
0.00194124
0.00194124
0.00193788
0.00193048
0.00188141
0.00192712
0.00192712
0.00188477
0.00188477
0.00193048
0.00188141
0.00192712
0.00192712
0.00188477
0.00188477
0.00192712
0.00188477
0.00188477
0.00193048
0.00188141
0.00192712
0.00188477
0.00188477
0.0018814
0.001874
0.00182493
0.00187065
0.00187065
0.0018283
0.0018283
0.001874
0.00182493
0.00187065
0.00187065
0.0018283
0.0018283
0.00187065
0.0018283
0.0018283
0.001874
0.00182493
0.00187065
0.0018283
0.0018283
0.00182493
0.00181753
0.00176846
0.00181418
0.00181418
0.00177182
0.00177182
0.00181753
0.00176846
0.00181418
0.00181418
0.00177182
0.00177182
0.00181418
0.00177182
0.00177182
0.00181753
0.00176846
0.00181418
0.00177182
0.00177182
0.00176846
0.00176105
0.00171198
0.0017577
0.0017577
0.00171534
0.00171534
0.00176105
0.00171198
0.0017577
0.0017577
0.00171534
0.00171534
0.0017577
0.00171534
0.00171534
0.00176106
0.00171198
0.0017577
0.00171534
0.00171534
0.00171198
0.00170458
0.0016555
0.00170122
0.00170122
0.00165887
0.00165887
0.00170458
0.0016555
0.00170122
0.00170122
0.00165887
0.00165887
0.00170122
0.00165887
0.00165887
0.00170458
0.0016555
0.00170122
0.00165887
0.00165887
0.0016555
0.0016481
0.00159903
0.00164475
0.00164475
0.00160239
0.00160239
0.0016481
0.00159903
0.00164475
0.00164475
0.00160239
0.00160239
0.00164475
0.00160239
0.00160239
0.0016481
0.00159903
0.00164475
0.00160239
0.00160239
0.00159903
0.00159163
0.00154255
0.00158827
0.00158827
0.00154592
0.00154592
0.00159163
0.00154255
0.00158827
0.00158827
0.00154592
0.00154592
0.00158827
0.00154592
0.00154592
0.00159163
0.00154255
0.00158827
0.00154592
0.00154592
0.00154255
0.00153515
0.00148607
0.0015318
0.0015318
0.00148944
0.00148944
0.00153515
0.00148607
0.0015318
0.0015318
0.00148944
0.00148944
0.0015318
0.00148944
0.00148944
0.00153515
0.00148607
0.0015318
0.00148944
0.00148944
0.00148607
0.00147867
0.00142959
0.00147532
0.00147532
0.00143296
0.00143296
0.00147867
0.00142959
0.00147532
0.00147532
0.00143296
0.00143296
0.00147532
0.00143296
0.00143296
0.00147867
0.00142959
0.00147532
0.00143296
0.00143296
0.00142959
0.00142219
0.00137312
0.00141884
0.00141884
0.00137648
0.00137648
0.00142219
0.00137312
0.00141884
0.00141884
0.00137648
0.00137648
0.00141884
0.00137648
0.00137648
0.00142219
0.00137312
0.00141884
0.00137648
0.00137648
0.00137312
0.00136571
0.00131664
0.00136236
0.00136236
0.00132
0.00132
0.00136571
0.00131664
0.00136236
0.00136236
0.00132
0.00132
0.00136236
0.00132
0.00132
0.00136571
0.00131664
0.00136236
0.00132
0.00132
0.00131664
0.00130924
0.00126016
0.00130588
0.00130588
0.00126352
0.00126352
0.00130924
0.00126016
0.00130588
0.00130588
0.00126352
0.00126352
0.00130588
0.00126352
0.00126352
0.00130924
0.00126016
0.00130588
0.00126352
0.00126352
0.00126016
0.00125276
0.00120368
0.0012494
0.0012494
0.00120704
0.00120704
0.00125276
0.00120368
0.0012494
0.0012494
0.00120704
0.00120704
0.0012494
0.00120704
0.00120704
0.00125276
0.00120368
0.0012494
0.00120704
0.00120704
0.00120368
0.00119628
0.0011472
0.00119292
0.00119292
0.00115056
0.00115056
0.00119627
0.0011472
0.00119292
0.00119292
0.00115056
0.00115056
0.00119292
0.00115056
0.00115056
0.00119628
0.0011472
0.00119292
0.00115056
0.00115056
0.0011472
0.00113979
0.00109071
0.00113644
0.00113644
0.00109408
0.00109408
0.00113979
0.00109071
0.00113644
0.00113644
0.00109408
0.00109408
0.00113644
0.00109408
0.00109408
0.00113979
0.00109071
0.00113644
0.00109408
0.00109408
0.00109071
0.00108331
0.00103423
0.00107995
0.00107995
0.00103759
0.00103759
0.00108331
0.00103423
0.00107995
0.00107995
0.00103759
0.00103759
0.00107995
0.00103759
0.00103759
0.00108331
0.00103423
0.00107995
0.00103759
0.00103759
0.00103423
0.00102683
0.000977745
0.00102347
0.00102347
0.000981109
0.000981109
0.00102683
0.000977745
0.00102347
0.00102347
0.000981109
0.000981109
0.00102347
0.000981109
0.000981109
0.00102683
0.000977745
0.00102347
0.000981109
0.000981109
0.000977745
0.000970343
0.00092126
0.000966988
0.000966988
0.000924624
0.000924624
0.000970342
0.00092126
0.000966988
0.000966988
0.000924624
0.000924624
0.000966989
0.000924624
0.000924625
0.000970343
0.00092126
0.000966988
0.000924624
0.000924624
0.00092126
0.000913857
0.000864773
0.000910503
0.000910503
0.000868138
0.000868138
0.000913857
0.000864774
0.000910503
0.000910503
0.000868138
0.000868138
0.000910503
0.000868138
0.000868138
0.000913857
0.000864773
0.000910503
0.000868138
0.000868138
0.000864773
0.000857371
0.000808286
0.000854017
0.000854016
0.000811651
0.00081165
0.000857371
0.000808286
0.000854016
0.000854016
0.00081165
0.000811651
0.000854017
0.000811651
0.000811651
0.000857371
0.000808286
0.000854016
0.000811651
0.000811651
0.000808286
0.000800883
0.000751798
0.000797529
0.000797529
0.000755163
0.000755162
0.000800883
0.000751798
0.000797529
0.000797529
0.000755162
0.000755163
0.000797529
0.000755163
0.000755163
0.000800883
0.000751798
0.000797529
0.000755163
0.000755163
0.000751798
0.000744395
0.00069531
0.000741041
0.000741041
0.000698675
0.000698674
0.000744395
0.00069531
0.000741041
0.000741041
0.000698674
0.000698675
0.000741041
0.000698675
0.000698675
0.000744395
0.00069531
0.000741041
0.000698674
0.000698675
0.00069531
0.000687907
0.000638821
0.000684553
0.000684553
0.000642186
0.000642186
0.000687907
0.000638822
0.000684552
0.000684553
0.000642186
0.000642186
0.000684553
0.000642186
0.000642186
0.000687907
0.000638821
0.000684553
0.000642186
0.000642186
0.000638821
0.000631418
0.000582331
0.000628064
0.000628064
0.000585696
0.000585696
0.000631418
0.000582331
0.000628064
0.000628064
0.000585695
0.000585696
0.000628064
0.000585696
0.000585696
0.000631418
0.000582331
0.000628064
0.000585696
0.000585696
0.000582331
0.000574927
0.000525839
0.000571573
0.000571573
0.000529204
0.000529204
0.000574927
0.00052584
0.000571573
0.000571573
0.000529204
0.000529204
0.000571573
0.000529204
0.000529205
0.000574927
0.00052584
0.000571573
0.000529204
0.000529204
0.000525839
0.000518436
0.000469348
0.000515082
0.000515082
0.000472713
0.000472713
0.000518436
0.000469348
0.000515081
0.000515082
0.000472713
0.000472713
0.000515082
0.000472713
0.000472713
0.000518436
0.000469348
0.000515082
0.000472713
0.000472713
0.000469348
0.000461944
0.000412856
0.00045859
0.00045859
0.000416221
0.000416221
0.000461944
0.000412857
0.00045859
0.00045859
0.000416221
0.000416221
0.00045859
0.000416221
0.000416221
0.000461945
0.000412856
0.00045859
0.000416221
0.000416221
0.000412856
0.000405453
0.000356365
0.000402099
0.000402099
0.00035973
0.00035973
0.000405453
0.000356366
0.000402098
0.000402099
0.00035973
0.00035973
0.000402099
0.00035973
0.00035973
0.000405453
0.000356365
0.000402099
0.00035973
0.00035973
0.000356365
0.000348962
0.000299873
0.000345607
0.000345607
0.000303238
0.000303238
0.000348962
0.000299873
0.000345607
0.000345607
0.000303238
0.000303238
0.000345608
0.000303238
0.000303238
0.000348962
0.000299873
0.000345607
0.000303238
0.000303238
0.000299873
0.000292469
0.00024338
0.000289115
0.000289115
0.000246745
0.000246745
0.000292469
0.00024338
0.000289114
0.000289115
0.000246745
0.000246745
0.000289115
0.000246745
0.000246745
0.000292469
0.000243379
0.000289115
0.000246745
0.000246745
0.000243379
0.000235975
0.000186885
0.000232623
0.000232623
0.000190266
0.000190266
0.000235975
0.000186885
0.000232623
0.000232623
0.000190266
0.000190266
0.000232623
0.000190266
0.000190266
0.000235975
0.000186885
0.000232623
0.000190266
0.000190266
0.000186885
0.000179428
0.00013039
0.000176139
0.000176139
0.000133649
0.000133648
0.000179428
0.000130391
0.000176139
0.000176139
0.000133648
0.000133648
0.000176139
0.000133647
0.000133648
0.000179428
0.00013039
0.000176139
0.000133648
0.000133648
0.00013039
0.000122741
7.3872e-05
0.000119511
0.000119512
7.71777e-05
7.71792e-05
0.000122741
7.38744e-05
0.00011951
0.00011951
7.71759e-05
7.71754e-05
0.000119511
7.71777e-05
7.71753e-05
0.000122741
7.38693e-05
0.00011951
7.71744e-05
7.71744e-05
7.38702e-05
6.63191e-05
2.08929e-05
6.31815e-05
6.31831e-05
2.39492e-05
2.39488e-05
6.63205e-05
2.08929e-05
6.31809e-05
6.31787e-05
2.39467e-05
2.39428e-05
6.31778e-05
2.39451e-05
2.39417e-05
6.63154e-05
2.0888e-05
6.31775e-05
2.39427e-05
2.39427e-05
2.08872e-05
1.53268e-05
1.5405e-05
1.54046e-05
1.53273e-05
1.54032e-05
1.54009e-05
1.47997e-05
1.47977e-05
1.47976e-05
1.53999e-05
1.53239e-05
1.54006e-05
0.00535818
0.00536716
0.00536234
0.00536248
0.00538264
0.00537079
0.0053965
0.00536511
0.00538288
0.00537161
0.00536537
0.00540435
0.00537519
0.00539947
0.00539939
0.0053212
0.00533789
0.00534937
0.00531105
0.00530945
0.00531232
0.0053212
0.00533778
0.00534946
0.00531106
0.00533757
0.00533753
0.00533751
0.00529057
0.00529054
0.00529048
0.00529048
0.00531227
0.00534083
0.00533852
0.00532218
0.00534355
0.00531604
0.00532267
0.00531221
0.00531226
0.00531195
0.00533831
0.00533998
0.00532193
0.00534294
0.00532248
0.00531561
0.00534645
0.00534657
0.00531635
0.0053159
0.0053158
0.00525869
0.00527976
0.00528667
0.00525438
0.00527803
0.00525298
0.00525867
0.00527975
0.00528666
0.00525437
0.00527519
0.00527515
0.00527515
0.0052261
0.00522609
0.00522608
0.00522608
0.00525503
0.00528288
0.00527496
0.00525961
0.00527993
0.00525712
0.00525883
0.00527798
0.00525294
0.00525499
0.0052749
0.00528277
0.00525956
0.00527983
0.00525879
0.00525707
0.00528264
0.0052826
0.00525422
0.00525643
0.00525642
0.00518586
0.0052096
0.00521301
0.00518429
0.00520781
0.0051836
0.00518585
0.00520959
0.005213
0.00518429
0.00520915
0.00520914
0.00520914
0.00516142
0.00516141
0.00516141
0.00516141
0.00518646
0.00521296
0.0052091
0.00519256
0.00521154
0.00518706
0.00519246
0.0052078
0.0051836
0.00518645
0.00520909
0.00521294
0.00519255
0.00521152
0.00519246
0.00518705
0.00521133
0.00521132
0.00518764
0.00518588
0.00518588
0.00512832
0.00514902
0.00514933
0.00512819
0.00514921
0.00512828
0.00512832
0.00514903
0.00514934
0.0051282
0.00514671
0.00514671
0.00514671
0.00510375
0.00510375
0.00510374
0.00510374
0.00512848
0.00514942
0.00514649
0.00513199
0.00514946
0.00512836
0.0051321
0.00514921
0.00512828
0.00512848
0.00514649
0.00514941
0.00513199
0.00514946
0.0051321
0.00512836
0.00514949
0.0051495
0.00512857
0.00512831
0.00512831
0.00507187
0.00509297
0.00509298
0.00507186
0.00509297
0.00507186
0.00507187
0.00509297
0.00509298
0.00507186
0.00508958
0.00508958
0.00508958
0.00504718
0.00504718
0.00504718
0.00504718
0.00507198
0.00509292
0.00508952
0.00507536
0.0050929
0.00507192
0.00507538
0.00509297
0.00507186
0.00507198
0.00508951
0.00509292
0.00507536
0.0050929
0.00507538
0.00507192
0.00509298
0.00509298
0.00507199
0.00507186
0.00507186
0.00501542
0.00503653
0.00503653
0.00501541
0.00503654
0.0050154
0.00501542
0.00503653
0.00503653
0.00501541
0.00503306
0.00503306
0.00503306
0.00499072
0.00499072
0.00499072
0.00499072
0.00501552
0.00503648
0.00503303
0.0050189
0.00503644
0.00501547
0.00501891
0.00503653
0.00501542
0.00501552
0.00503303
0.00503648
0.0050189
0.00503644
0.00501891
0.00501547
0.00503654
0.00503654
0.00501553
0.00501541
0.00501541
0.00495896
0.00498008
0.00498007
0.00495895
0.00498008
0.00495896
0.00495896
0.00498008
0.00498007