/*--------------------------------*- C++ -*----------------------------------*\
| =========                 |                                                 |
| \\      /  F ield         | OpenFOAM: The Open Source CFD Toolbox           |
|  \\    /   O peration     | Version:  v1906                                 |
|   \\  /    A nd           | Web:      www.OpenFOAM.com                      |
|    \\/     M anipulation  |                                                 |
\*---------------------------------------------------------------------------*/
FoamFile
{
    version     2.0;
    format      ascii;
    class       volScalarField;
    location    "262.5";
    object      epsilon;
}
// * * * * * * * * * * * * * * * * * * * * * * * * * * * * * * * * * * * * * //

dimensions      [0 2 -3 0 0 0 0];


internalField   nonuniform List<scalar> 
171728
(
5.47089e-09
4.80608e-09
6.95287e-09
4.99475e-09
5.43436e-09
4.36215e-09
6.95715e-09
4.51131e-09
5.4374e-09
3.94427e-09
6.27245e-09
4.08174e-09
5.44772e-09
3.60514e-09
5.12058e-09
3.72067e-09
5.4613e-09
3.32434e-09
4.16474e-09
3.41603e-09
5.48134e-09
3.08804e-09
3.52507e-09
3.1615e-09
5.50932e-09
2.9e-09
3.11175e-09
2.95126e-09
5.54442e-09
2.75879e-09
2.86282e-09
2.77983e-09
5.58831e-09
2.66247e-09
2.66231e-09
2.64002e-09
5.64013e-09
2.60664e-09
2.56502e-09
2.53236e-09
5.69942e-09
2.5896e-09
2.55374e-09
2.46033e-09
5.76633e-09
2.61156e-09
2.61797e-09
2.4278e-09
5.83994e-09
2.68121e-09
2.75494e-09
2.43638e-09
5.91994e-09
2.81235e-09
2.93647e-09
2.49948e-09
6.00796e-09
3.02527e-09
3.19224e-09
2.6427e-09
6.10224e-09
3.34691e-09
3.62622e-09
2.91368e-09
6.20428e-09
3.85978e-09
4.34887e-09
3.38783e-09
6.31582e-09
4.66435e-09
5.40664e-09
4.16615e-09
6.43552e-09
5.83786e-09
7.00875e-09
5.69375e-09
6.56972e-09
7.59036e-09
8.88327e-09
8.03503e-09
6.71893e-09
1.00675e-08
1.12672e-08
1.18808e-08
6.88746e-09
1.36641e-08
1.55173e-08
1.8448e-08
7.09274e-09
1.85202e-08
1.89899e-08
3.19759e-08
7.3288e-09
2.54707e-08
2.82706e-08
4.67257e-08
7.6354e-09
3.34643e-08
3.59458e-08
7.9853e-08
8.00246e-09
5.24563e-08
4.49914e-08
1.13101e-07
8.52042e-09
6.12026e-08
6.08334e-08
1.71249e-07
9.14235e-09
7.50112e-08
7.58199e-08
2.05023e-07
9.9677e-09
9.85005e-08
1.0077e-07
3.24469e-07
1.09594e-08
1.20191e-07
1.17848e-07
3.62137e-07
1.22395e-08
1.46936e-07
1.4907e-07
4.69357e-07
1.40779e-08
1.76094e-07
1.75096e-07
5.3247e-07
1.60445e-08
2.11403e-07
2.08846e-07
6.04603e-07
1.92293e-08
2.50109e-07
2.50314e-07
6.6715e-07
2.19032e-08
2.74554e-07
2.83878e-07
7.19255e-07
2.64256e-08
3.33369e-07
3.242e-07
7.74325e-07
3.16227e-08
3.73358e-07
3.77614e-07
8.28312e-07
3.65346e-08
4.13543e-07
4.11675e-07
8.57151e-07
4.45938e-08
4.64388e-07
4.64908e-07
8.99915e-07
5.27286e-08
5.11974e-07
5.13074e-07
9.34798e-07
6.39989e-08
5.63537e-07
5.61972e-07
9.67703e-07
7.42224e-08
6.1183e-07
6.12753e-07
9.99347e-07
8.93769e-08
6.59424e-07
6.57806e-07
1.02988e-06
1.03731e-07
7.07096e-07
7.09805e-07
1.05988e-06
1.21895e-07
7.52372e-07
7.47221e-07
1.08616e-06
1.40318e-07
7.93771e-07
7.96769e-07
1.1154e-06
1.6134e-07
8.38555e-07
8.33995e-07
1.14053e-06
1.84135e-07
8.69794e-07
8.76369e-07
1.16634e-06
2.09873e-07
9.08989e-07
9.08005e-07
1.19015e-06
2.35161e-07
9.43436e-07
9.43185e-07
1.21273e-06
2.61719e-07
9.716e-07
9.72108e-07
1.23503e-06
2.91357e-07
1.00159e-06
9.98452e-07
1.24888e-06
3.18564e-07
1.01762e-06
1.01838e-06
1.26403e-06
3.48936e-07
1.04342e-06
1.04469e-06
1.28319e-06
3.77406e-07
1.05202e-06
1.05244e-06
1.29239e-06
3.883e-07
1.04391e-06
1.04383e-06
1.2732e-06
4.10693e-07
1.06048e-06
1.06014e-06
1.28625e-06
4.62506e-07
1.10665e-06
1.1063e-06
1.3413e-06
5.03733e-07
1.14021e-06
1.14e-06
1.38514e-06
5.13979e-07
1.14183e-06
1.14173e-06
1.3861e-06
4.99948e-07
1.11185e-06
1.11188e-06
1.34394e-06
4.71069e-07
1.065e-06
1.0651e-06
1.2802e-06
4.52061e-07
1.0271e-06
1.02717e-06
1.22669e-06
4.6147e-07
1.02659e-06
1.02666e-06
1.22734e-06
5.11207e-07
1.06747e-06
1.06753e-06
1.27918e-06
5.6355e-07
1.10544e-06
1.10551e-06
1.33163e-06
5.94723e-07
1.12991e-06
1.12998e-06
1.36797e-06
6.08871e-07
1.14246e-06
1.14254e-06
1.38836e-06
6.14184e-07
1.14805e-06
1.14813e-06
1.39837e-06
6.16078e-07
1.15034e-06
1.15042e-06
1.40276e-06
6.1655e-07
1.15099e-06
1.15107e-06
1.40436e-06
6.16506e-07
1.15101e-06
1.15109e-06
1.40461e-06
6.16523e-07
1.15107e-06
1.15115e-06
1.40456e-06
6.16566e-07
1.15116e-06
1.15124e-06
1.40486e-06
6.16514e-07
1.15106e-06
1.15114e-06
1.40456e-06
6.16535e-07
1.15112e-06
1.1512e-06
1.40474e-06
6.16525e-07
1.15109e-06
1.15117e-06
1.40474e-06
6.1652e-07
1.15109e-06
1.15117e-06
1.40462e-06
6.16523e-07
1.1511e-06
1.15119e-06
1.40479e-06
6.16515e-07
1.15108e-06
1.15116e-06
1.40461e-06
6.16515e-07
1.1511e-06
1.15118e-06
1.40479e-06
6.16509e-07
1.15109e-06
1.15117e-06
1.40465e-06
6.16508e-07
1.15109e-06
1.15117e-06
1.40475e-06
6.16507e-07
1.15109e-06
1.15117e-06
1.4047e-06
6.16507e-07
1.15109e-06
1.15117e-06
1.40467e-06
6.16507e-07
1.15109e-06
1.15118e-06
1.40478e-06
6.16507e-07
1.1511e-06
1.15118e-06
1.40467e-06
6.16507e-07
1.1511e-06
1.15118e-06
1.40466e-06
6.1651e-07
1.15111e-06
1.15119e-06
1.40476e-06
6.16513e-07
1.15112e-06
1.1512e-06
1.40477e-06
6.16519e-07
1.15113e-06
1.15122e-06
1.40472e-06
6.16527e-07
1.15116e-06
1.15124e-06
1.40466e-06
6.16525e-07
1.1512e-06
1.15128e-06
1.4047e-06
6.16273e-07
1.1509e-06
1.15097e-06
1.4044e-06
5.96736e-07
1.09258e-06
1.09257e-06
1.36184e-06
4.96943e-09
4.33729e-09
4.2543e-09
4.80535e-09
4.2768e-09
4.23833e-09
5.50518e-09
5.51583e-09
5.57468e-09
5.48866e-09
4.21019e-09
3.86396e-09
4.87524e-09
4.48791e-09
4.2873e-09
5.01973e-09
4.94074e-09
4.4941e-09
4.76928e-09
4.69308e-09
4.4612e-09
4.39511e-09
4.77632e-09
4.37201e-09
4.71775e-09
4.69259e-09
4.41601e-09
4.38642e-09
4.15425e-09
4.47604e-09
3.9809e-09
4.82038e-09
4.47223e-09
4.71651e-09
7.00218e-09
4.40731e-09
4.54466e-09
4.45856e-09
4.06516e-09
4.35764e-09
4.29583e-09
4.07007e-09
4.02162e-09
4.33845e-09
3.97701e-09
4.31383e-09
4.28487e-09
4.03235e-09
4.00389e-09
3.91774e-09
4.04087e-09
3.73843e-09
4.40382e-09
4.10617e-09
4.30356e-09
6.50706e-09
4.01396e-09
4.11032e-09
4.03496e-09
3.70746e-09
3.98226e-09
3.93667e-09
3.73918e-09
3.69985e-09
3.9479e-09
3.64049e-09
3.94479e-09
3.91707e-09
3.70156e-09
3.67664e-09
3.68238e-09
3.68294e-09
3.52536e-09
4.0535e-09
3.77133e-09
3.92405e-09
5.41153e-09
3.6747e-09
3.74545e-09
3.68198e-09
3.40552e-09
3.66419e-09
3.62651e-09
3.45646e-09
3.42418e-09
3.61566e-09
3.35198e-09
3.62794e-09
3.60312e-09
3.42385e-09
3.39785e-09
3.47747e-09
3.39052e-09
3.34376e-09
3.73879e-09
3.46165e-09
3.59925e-09
4.36981e-09
3.38817e-09
3.4369e-09
3.38389e-09
3.14809e-09
3.3921e-09
3.36212e-09
3.21339e-09
3.19058e-09
3.33096e-09
3.10709e-09
3.35996e-09
3.33418e-09
3.18268e-09
3.1589e-09
3.30156e-09
3.14274e-09
3.18274e-09
3.4364e-09
3.17968e-09
3.32345e-09
3.66019e-09
3.14869e-09
3.17838e-09
3.13019e-09
2.92877e-09
3.15939e-09
3.13935e-09
3.01508e-09
2.99996e-09
3.0901e-09
2.90008e-09
3.1287e-09
3.10656e-09
2.98419e-09
2.9669e-09
3.14508e-09
2.94209e-09
3.0439e-09
3.15916e-09
2.94192e-09
3.09693e-09
3.19705e-09
2.95988e-09
2.96418e-09
2.91469e-09
2.74159e-09
2.97169e-09
2.95825e-09
2.8594e-09
2.84819e-09
2.88696e-09
2.7268e-09
2.94142e-09
2.92617e-09
2.827e-09
2.8184e-09
3.01256e-09
2.79058e-09
2.929e-09
2.9268e-09
2.74644e-09
2.91997e-09
2.92093e-09
2.81425e-09
2.78919e-09
2.73114e-09
2.58651e-09
2.82702e-09
2.81535e-09
2.74307e-09
2.73154e-09
2.71765e-09
2.58586e-09
2.79313e-09
2.78714e-09
2.7054e-09
2.71105e-09
2.90591e-09
2.68286e-09
2.84537e-09
2.73468e-09
2.58459e-09
2.78272e-09
2.70416e-09
2.7043e-09
2.64543e-09
2.5802e-09
2.46628e-09
2.7206e-09
2.7092e-09
2.66688e-09
2.65657e-09
2.58066e-09
2.47819e-09
2.68233e-09
2.6895e-09
2.62653e-09
2.64247e-09
2.82986e-09
2.61611e-09
2.79317e-09
2.57786e-09
2.45829e-09
2.68235e-09
2.5794e-09
2.63285e-09
2.53347e-09
2.46479e-09
2.38655e-09
2.65505e-09
2.64625e-09
2.63123e-09
2.62696e-09
2.4777e-09
2.40653e-09
2.61327e-09
2.63133e-09
2.59049e-09
2.61402e-09
2.78656e-09
2.58944e-09
2.77769e-09
2.45693e-09
2.38127e-09
2.6216e-09
2.55301e-09
2.60089e-09
2.45735e-09
2.38948e-09
2.34725e-09
2.62947e-09
2.62677e-09
2.63935e-09
2.63778e-09
2.40984e-09
2.36859e-09
2.58563e-09
2.61426e-09
2.59111e-09
2.62715e-09
2.77874e-09
2.60232e-09
2.79432e-09
2.38467e-09
2.35239e-09
2.60073e-09
2.59114e-09
2.61229e-09
2.41779e-09
2.35812e-09
2.35172e-09
2.64796e-09
2.64702e-09
2.69675e-09
2.69277e-09
2.37916e-09
2.36992e-09
2.59875e-09
2.63783e-09
2.6414e-09
2.68844e-09
2.80434e-09
2.65887e-09
2.85023e-09
2.36437e-09
2.36685e-09
2.62221e-09
2.71598e-09
2.66965e-09
2.41657e-09
2.37238e-09
2.40377e-09
2.71804e-09
2.71492e-09
2.80852e-09
2.80507e-09
2.39045e-09
2.42085e-09
2.66212e-09
2.71256e-09
2.74588e-09
2.80553e-09
2.87292e-09
2.77188e-09
2.9635e-09
2.38793e-09
2.42342e-09
2.69256e-09
2.88837e-09
2.7857e-09
2.46575e-09
2.43729e-09
2.52443e-09
2.84657e-09
2.8457e-09
2.99802e-09
2.99809e-09
2.45536e-09
2.54172e-09
2.78263e-09
2.84631e-09
2.91741e-09
2.99956e-09
3.00393e-09
2.96257e-09
3.15318e-09
2.45705e-09
2.54747e-09
2.82591e-09
3.11722e-09
2.97897e-09
2.58464e-09
2.57951e-09
2.73632e-09
3.05905e-09
3.06072e-09
3.29234e-09
3.296e-09
2.60403e-09
2.75771e-09
2.974e-09
3.06326e-09
3.1813e-09
3.29795e-09
3.21537e-09
3.25711e-09
3.44485e-09
2.60869e-09
2.78903e-09
3.04286e-09
3.49549e-09
3.27742e-09
2.81457e-09
2.82982e-09
3.12612e-09
3.38759e-09
3.39095e-09
3.75182e-09
3.76694e-09
2.85335e-09
3.19211e-09
3.26992e-09
3.3953e-09
3.6167e-09
3.76947e-09
3.54405e-09
3.72826e-09
3.90229e-09
2.89304e-09
3.23943e-09
3.37674e-09
4.13249e-09
3.73525e-09
3.22095e-09
3.27668e-09
3.83589e-09
3.89242e-09
3.89969e-09
4.47418e-09
4.4239e-09
3.32494e-09
3.81996e-09
3.75221e-09
3.92644e-09
4.31481e-09
4.47104e-09
4.05344e-09
4.375e-09
4.60639e-09
3.41659e-09
4.01254e-09
3.88675e-09
5.11562e-09
4.43156e-09
3.91763e-09
4.09385e-09
4.96511e-09
4.69336e-09
4.71099e-09
5.51278e-09
5.59868e-09
4.17632e-09
5.38978e-09
4.5324e-09
4.71276e-09
5.32998e-09
5.53948e-09
4.82439e-09
5.56458e-09
5.70839e-09
4.30774e-09
5.33893e-09
4.64952e-09
6.55328e-09
5.51983e-09
5.21882e-09
5.42724e-09
7.14151e-09
5.85322e-09
5.87977e-09
7.11965e-09
7.10654e-09
5.72592e-09
7.15005e-09
5.6619e-09
5.90217e-09
6.8932e-09
7.12712e-09
6.0434e-09
7.02799e-09
7.24936e-09
5.83692e-09
7.41015e-09
5.84964e-09
8.10864e-09
7.04854e-09
7.15701e-09
7.94748e-09
1.07374e-08
7.60842e-09
7.65961e-09
9.35823e-09
9.34548e-09
8.07998e-09
1.07882e-08
7.41536e-09
7.59639e-09
9.20279e-09
9.36228e-09
7.82362e-09
9.30685e-09
9.58938e-09
8.10534e-09
1.13287e-08
7.61787e-09
1.08257e-08
9.30666e-09
1.08468e-08
1.15607e-08
1.82163e-08
9.92133e-09
1.00484e-08
1.31124e-08
1.2702e-08
1.18905e-08
1.69939e-08
9.71857e-09
9.98479e-09
1.27545e-08
1.31308e-08
1.03173e-08
1.25046e-08
1.28834e-08
1.22013e-08
1.93766e-08
1.00522e-08
1.46974e-08
1.2451e-08
1.6769e-08
2.12359e-08
2.51497e-08
1.41855e-08
1.36642e-08
1.6669e-08
1.73778e-08
1.89288e-08
2.8122e-08
1.38415e-08
1.42097e-08
1.64203e-08
1.65922e-08
1.39416e-08
1.7192e-08
1.80671e-08
2.21439e-08
2.45528e-08
1.355e-08
1.73924e-08
1.73927e-08
2.93539e-08
2.77966e-08
5.13329e-08
1.82178e-08
1.89372e-08
2.47983e-08
2.32991e-08
3.06899e-08
4.26888e-08
1.80606e-08
1.77938e-08
2.41359e-08
2.38325e-08
1.91948e-08
2.30021e-08
2.34536e-08
2.62188e-08
4.90569e-08
1.85607e-08
2.62793e-08
2.30314e-08
4.14699e-08
5.54678e-08
6.48535e-08
2.65229e-08
2.57516e-08
3.06378e-08
3.2571e-08
4.77669e-08
7.5305e-08
2.59996e-08
2.59844e-08
3.07384e-08
3.22727e-08
2.62443e-08
3.22995e-08
3.31363e-08
5.57511e-08
7.23835e-08
2.54863e-08
3.40705e-08
3.28126e-08
7.66129e-08
6.93249e-08
1.16852e-07
3.33159e-08
3.36482e-08
4.46535e-08
4.51367e-08
7.6471e-08
1.10364e-07
3.28531e-08
3.45197e-08
4.37515e-08
4.22046e-08
3.44811e-08
4.53059e-08
4.36753e-08
7.66887e-08
1.03759e-07
3.41834e-08
4.22114e-08
4.2018e-08
9.84434e-08
1.26449e-07
1.43168e-07
4.72335e-08
5.28568e-08
5.42949e-08
6.23718e-08
1.41271e-07
2.00798e-07
4.65038e-08
4.52198e-08
5.38228e-08
5.72501e-08
4.85306e-08
6.07002e-08
5.67819e-08
1.11782e-07
1.5883e-07
4.70857e-08
5.67839e-08
5.72652e-08
1.6844e-07
1.52908e-07
2.33722e-07
5.89057e-08
6.25482e-08
7.57681e-08
7.00028e-08
1.98105e-07
1.98584e-07
5.85271e-08
6.10684e-08
7.51255e-08
7.14173e-08
5.83889e-08
7.03053e-08
6.87469e-08
1.72872e-07
2.09361e-07
5.89592e-08
7.14119e-08
6.91285e-08
1.88236e-07
2.44e-07
2.71255e-07
7.90255e-08
7.46514e-08
9.11421e-08
9.19777e-08
2.1801e-07
2.80825e-07
7.84086e-08
7.63266e-08
8.97978e-08
9.56179e-08
7.53725e-08
9.18771e-08
9.72253e-08
2.20327e-07
2.99043e-07
7.57413e-08
9.52965e-08
9.66216e-08
3.11386e-07
2.85828e-07
3.77212e-07
9.82283e-08
9.93442e-08
1.15509e-07
1.16027e-07
2.97695e-07
3.74255e-07
9.62114e-08
1.00533e-07
1.14994e-07
1.12255e-07
1.01899e-07
1.15224e-07
1.12847e-07
3.17743e-07
3.55322e-07
1.00867e-07
1.12314e-07
1.12188e-07
3.50938e-07
3.89626e-07
4.37285e-07
1.20376e-07
1.20066e-07
1.39084e-07
1.38797e-07
3.84243e-07
4.37017e-07
1.21131e-07
1.18146e-07
1.39381e-07
1.43026e-07
1.18569e-07
1.38922e-07
1.42425e-07
3.66162e-07
4.51291e-07
1.18494e-07
1.42383e-07
1.42439e-07
4.50833e-07
4.5485e-07
5.14791e-07
1.45282e-07
1.47504e-07
1.70937e-07
1.71421e-07
4.56654e-07
5.14872e-07
1.44866e-07
1.49795e-07
1.68942e-07
1.67615e-07
1.48483e-07
1.7012e-07
1.68134e-07
4.70813e-07
5.15117e-07
1.48221e-07
1.66675e-07
1.68855e-07
5.16297e-07
5.30629e-07
5.86233e-07
1.79976e-07
1.77285e-07
1.99544e-07
1.99312e-07
5.30972e-07
5.86461e-07
1.7882e-07
1.75956e-07
2.00078e-07
2.02218e-07
1.77747e-07
1.99263e-07
2.02634e-07
5.28525e-07
5.82509e-07
1.78783e-07
2.01887e-07
2.02618e-07
5.91225e-07
6.00146e-07
6.54642e-07
2.06706e-07
2.11174e-07
2.40832e-07
2.45311e-07
6.05063e-07
6.61911e-07
2.06874e-07
2.09104e-07
2.39096e-07
2.37723e-07
2.08726e-07
2.43991e-07
2.36637e-07
5.99989e-07
6.58926e-07
2.08463e-07
2.3742e-07
2.36052e-07
6.51791e-07
6.70474e-07
7.07098e-07
2.52862e-07
2.51718e-07
2.75002e-07
2.67321e-07
6.71601e-07
6.92008e-07
2.51272e-07
2.50633e-07
2.74577e-07
2.78642e-07
2.49511e-07
2.66022e-07
2.77382e-07
6.73724e-07
7.0848e-07
2.48925e-07
2.78024e-07
2.77253e-07
7.09179e-07
7.17049e-07
7.63373e-07
2.81583e-07
2.7549e-07
3.14851e-07
3.17172e-07
7.03875e-07
7.6942e-07
2.81077e-07
2.84548e-07
3.13262e-07
3.10791e-07
2.83377e-07
3.17307e-07
3.10448e-07
7.18541e-07
7.56825e-07
2.83375e-07
3.10095e-07
3.10933e-07
7.57668e-07
7.80435e-07
8.15894e-07
3.29845e-07
3.33489e-07
3.65489e-07
3.65887e-07
7.86633e-07
8.14945e-07
3.2825e-07
3.24909e-07
3.65881e-07
3.68291e-07
3.24758e-07
3.65879e-07
3.67304e-07
7.73524e-07
8.20076e-07
3.25314e-07
3.6772e-07
3.67035e-07
8.1947e-07
8.23979e-07
8.46677e-07
3.74151e-07
3.73355e-07
4.01011e-07
4.02432e-07
8.22882e-07
8.46335e-07
3.74471e-07
3.78046e-07
3.99849e-07
4.02821e-07
3.76739e-07
4.01583e-07
4.02447e-07
8.29363e-07
8.47725e-07
3.76604e-07
4.01925e-07
4.02159e-07
8.47283e-07
8.57628e-07
8.89914e-07
4.12374e-07
4.13938e-07
4.52343e-07
4.4994e-07
8.57407e-07
8.89597e-07
4.1184e-07
4.13104e-07
4.5273e-07
4.52369e-07
4.1314e-07
4.51397e-07
4.50021e-07
8.57431e-07
8.89438e-07
4.12547e-07
4.51004e-07
4.50477e-07
8.89106e-07
9.0013e-07
9.24594e-07
4.65336e-07
4.63723e-07
4.99622e-07
5.02723e-07
8.99827e-07
9.25477e-07
4.64411e-07
4.65611e-07
4.97761e-07
5.01153e-07
4.62959e-07
5.0099e-07
5.00993e-07
9.00537e-07
9.26113e-07
4.63806e-07
5.01144e-07
5.00621e-07
9.25714e-07
9.3416e-07
9.61382e-07
5.11408e-07
5.13289e-07
5.52157e-07
5.49932e-07
9.34571e-07
9.59022e-07
5.11217e-07
5.13621e-07
5.53097e-07
5.5208e-07
5.12953e-07
5.49256e-07
5.49167e-07
9.34924e-07
9.5908e-07
5.12331e-07
5.50127e-07
5.4967e-07
9.5875e-07
9.70173e-07
9.896e-07
5.65133e-07
5.64195e-07
5.96961e-07
5.99426e-07
9.68501e-07
9.92331e-07
5.64855e-07
5.63464e-07
5.96151e-07
5.98677e-07
5.61739e-07
6.01294e-07
5.9885e-07
9.68044e-07
9.90838e-07
5.62411e-07
5.99603e-07
5.98371e-07
9.91164e-07
9.97784e-07
1.02343e-06
6.08339e-07
6.09744e-07
6.49803e-07
6.48006e-07
9.99892e-07
1.0211e-06
6.08058e-07
6.12063e-07
6.49027e-07
6.48543e-07
6.10922e-07
6.46343e-07
6.46821e-07
9.99319e-07
1.02161e-06
6.1014e-07
6.46688e-07
6.46829e-07
1.02139e-06
1.03227e-06
1.0518e-06
6.62764e-07
6.61582e-07
6.94004e-07
6.94418e-07
1.02988e-06
1.05138e-06
6.62249e-07
6.59434e-07
6.95564e-07
6.96255e-07
6.59213e-07
6.96095e-07
6.96377e-07
1.0294e-06
1.05184e-06
6.59613e-07
6.97383e-07
6.96495e-07
1.0524e-06
1.05896e-06
1.08115e-06
7.05111e-07
7.04573e-07
7.42986e-07
7.41406e-07
1.05843e-06
1.07946e-06
7.06333e-07
7.08808e-07
7.42282e-07
7.3937e-07
7.0774e-07
7.40775e-07
7.39249e-07
1.06003e-06
1.07796e-06
7.07563e-07
7.37443e-07
7.38953e-07
1.07888e-06
1.08893e-06
1.10639e-06
7.5433e-07
7.54082e-07
7.82924e-07
7.83409e-07
1.08731e-06
1.10555e-06
7.54424e-07
7.4943e-07
7.85698e-07
7.85146e-07
7.50493e-07
7.83702e-07
7.85351e-07
1.08453e-06
1.10733e-06
7.50167e-07
7.8491e-07
7.84449e-07
1.10791e-06
1.1128e-06
1.13237e-06
7.93185e-07
7.92414e-07
8.26446e-07
8.28072e-07
1.11201e-06
1.13453e-06
7.95141e-07
7.96614e-07
8.24593e-07
8.25325e-07
7.96222e-07
8.27666e-07
8.26605e-07
1.11555e-06
1.13331e-06
7.95204e-07
8.24526e-07
8.259e-07
1.13399e-06
1.13933e-06
1.15685e-06
8.36353e-07
8.40597e-07
8.62838e-07
8.67429e-07
1.14262e-06
1.15859e-06
8.34764e-07
8.35171e-07
8.65046e-07
8.67694e-07
8.36278e-07
8.62791e-07
8.64653e-07
1.13945e-06
1.16069e-06
8.35871e-07
8.66558e-07
8.65326e-07
1.15961e-06
1.16335e-06
1.18361e-06
8.72231e-07
8.74155e-07
9.02491e-07
8.99715e-07
1.16335e-06
1.17931e-06
8.74849e-07
8.77362e-07
9.02062e-07
9.01301e-07
8.74338e-07
8.98264e-07
9.02856e-07
1.16792e-06
1.18269e-06
8.75152e-07
9.00379e-07
9.02787e-07
1.18421e-06
1.19023e-06
1.20559e-06
9.11625e-07
9.09254e-07
9.35528e-07
9.33541e-07
1.18681e-06
1.20552e-06
9.09862e-07
9.08931e-07
9.32219e-07
9.34549e-07
9.10962e-07
9.35952e-07
9.35657e-07
1.18783e-06
1.20493e-06
9.10438e-07
9.34025e-07
9.3473e-07
1.2061e-06
1.21104e-06
1.22626e-06
9.43179e-07
9.40818e-07
9.64518e-07
9.63353e-07
1.21076e-06
1.22529e-06
9.40172e-07
9.43328e-07
9.63204e-07
9.65282e-07
9.45217e-07
9.64344e-07
9.68614e-07
1.21171e-06
1.22813e-06
9.44501e-07
9.65928e-07
9.68506e-07
1.23062e-06
1.23188e-06
1.247e-06
9.71378e-07
9.71033e-07
9.93181e-07
9.92457e-07
1.23144e-06
1.24793e-06
9.70762e-07
9.71647e-07
9.94526e-07
9.92077e-07
9.73934e-07
9.94874e-07
9.92379e-07
1.23301e-06
1.2451e-06
9.73878e-07
9.91777e-07
9.92251e-07
1.24368e-06
1.2523e-06
1.2612e-06
9.998e-07
9.98137e-07
1.01391e-06
1.01071e-06
1.25298e-06
1.2603e-06
1.00146e-06
9.98693e-07
1.01483e-06
1.01376e-06
9.99503e-07
1.01404e-06
1.01411e-06
1.2503e-06
1.26106e-06
9.99402e-07
1.0139e-06
1.01429e-06
1.2606e-06
1.26492e-06
1.28016e-06
1.01832e-06
1.01545e-06
1.03837e-06
1.03751e-06
1.26394e-06
1.27948e-06
1.0189e-06
1.01853e-06
1.03853e-06
1.0391e-06
1.01773e-06
1.03621e-06
1.03609e-06
1.26516e-06
1.28068e-06
1.01783e-06
1.03786e-06
1.03569e-06
1.27638e-06
1.28661e-06
1.29061e-06
1.04516e-06
1.04496e-06
1.05284e-06
1.05376e-06
1.28626e-06
1.29168e-06
1.04522e-06
1.04581e-06
1.05245e-06
1.05306e-06
1.0434e-06
1.0524e-06
1.05286e-06
1.28704e-06
1.29101e-06
1.04305e-06
1.05289e-06
1.05303e-06
1.29156e-06
1.29128e-06
1.27105e-06
1.05229e-06
1.05334e-06
1.04506e-06
1.04644e-06
1.29238e-06
1.27226e-06
1.05179e-06
1.05244e-06
1.04431e-06
1.04509e-06
1.05251e-06
1.04517e-06
1.0451e-06
1.29168e-06
1.27094e-06
1.05274e-06
1.04518e-06
1.04538e-06
1.27262e-06
1.27176e-06
1.2792e-06
1.04382e-06
1.04518e-06
1.05191e-06
1.05299e-06
1.27293e-06
1.27957e-06
1.04307e-06
1.04388e-06
1.05143e-06
1.05245e-06
1.04353e-06
1.05194e-06
1.05031e-06
1.27159e-06
1.27885e-06
1.04374e-06
1.05161e-06
1.0501e-06
1.27789e-06
1.28802e-06
1.33066e-06
1.06037e-06
1.06137e-06
1.09451e-06
1.09525e-06
1.28827e-06
1.33084e-06
1.06002e-06
1.06107e-06
1.09467e-06
1.09556e-06
1.05883e-06
1.09512e-06
1.09412e-06
1.28775e-06
1.33096e-06
1.05856e-06
1.09475e-06
1.09367e-06
1.3297e-06
1.34196e-06
1.37767e-06
1.10593e-06
1.10659e-06
1.13396e-06
1.13443e-06
1.34216e-06
1.37794e-06
1.10616e-06
1.10692e-06
1.13409e-06
1.13455e-06
1.10606e-06
1.13464e-06
1.13472e-06
1.34231e-06
1.3781e-06
1.10561e-06
1.1344e-06
1.1344e-06
1.37807e-06
1.38464e-06
1.3849e-06
1.13962e-06
1.14001e-06
1.14388e-06
1.1441e-06
1.38491e-06
1.38504e-06
1.13969e-06
1.14006e-06
1.14381e-06
1.14402e-06
1.1404e-06
1.14424e-06
1.14456e-06
1.38505e-06
1.38509e-06
1.14013e-06
1.1441e-06
1.14439e-06
1.38569e-06
1.3853e-06
1.346e-06
1.14163e-06
1.14172e-06
1.12173e-06
1.12163e-06
1.38543e-06
1.34584e-06
1.14148e-06
1.14159e-06
1.12145e-06
1.12143e-06
1.14219e-06
1.12165e-06
1.12202e-06
1.38547e-06
1.34584e-06
1.1421e-06
1.12163e-06
1.12202e-06
1.3466e-06
1.34338e-06
1.28393e-06
1.11201e-06
1.11186e-06
1.07762e-06
1.07746e-06
1.3432e-06
1.28366e-06
1.1117e-06
1.11167e-06
1.07731e-06
1.07738e-06
1.11219e-06
1.07737e-06
1.07756e-06
1.34321e-06
1.28379e-06
1.1122e-06
1.07746e-06
1.07755e-06
1.28405e-06
1.2801e-06
1.22741e-06
1.06524e-06
1.0651e-06
1.03374e-06
1.03365e-06
1.27985e-06
1.22724e-06
1.06494e-06
1.06505e-06
1.03349e-06
1.03369e-06
1.06516e-06
1.03353e-06
1.03365e-06
1.27997e-06
1.22741e-06
1.06513e-06
1.03361e-06
1.03359e-06
1.22739e-06
1.2267e-06
1.22095e-06
1.02728e-06
1.02721e-06
1.02281e-06
1.02278e-06
1.22655e-06
1.22086e-06
1.02705e-06
1.02727e-06
1.02262e-06
1.02286e-06
1.02721e-06
1.02265e-06
1.02279e-06
1.22671e-06
1.22102e-06
1.02714e-06
1.02272e-06
1.0227e-06
1.22097e-06
1.22731e-06
1.26743e-06
1.02673e-06
1.02672e-06
1.05638e-06
1.05641e-06
1.22723e-06
1.26737e-06
1.02657e-06
1.02681e-06
1.05626e-06
1.05647e-06
1.02675e-06
1.05628e-06
1.05645e-06
1.22739e-06
1.2675e-06
1.02664e-06
1.05634e-06
1.05633e-06
1.2675e-06
1.27911e-06
1.32156e-06
1.06758e-06
1.06761e-06
1.09723e-06
1.09727e-06
1.27906e-06
1.32149e-06
1.06746e-06
1.06766e-06
1.09712e-06
1.09729e-06
1.06765e-06
1.09713e-06
1.0973e-06
1.27918e-06
1.3216e-06
1.06753e-06
1.09719e-06
1.09719e-06
1.32162e-06
1.33157e-06
1.36086e-06
1.10555e-06
1.10558e-06
1.12517e-06
1.1252e-06
1.33152e-06
1.3608e-06
1.10544e-06
1.1056e-06
1.12507e-06
1.12522e-06
1.10562e-06
1.12506e-06
1.12524e-06
1.33161e-06
1.36089e-06
1.10551e-06
1.12514e-06
1.12514e-06
1.36093e-06
1.3679e-06
1.38371e-06
1.13001e-06
1.13004e-06
1.14026e-06
1.1403e-06
1.36784e-06
1.38365e-06
1.12991e-06
1.13007e-06
1.14017e-06
1.14033e-06
1.13009e-06
1.14017e-06
1.14034e-06
1.36793e-06
1.38374e-06
1.12999e-06
1.14025e-06
1.14025e-06
1.38378e-06
1.38829e-06
1.39519e-06
1.14255e-06
1.14259e-06
1.14715e-06
1.14718e-06
1.38823e-06
1.39513e-06
1.14246e-06
1.14262e-06
1.14705e-06
1.14721e-06
1.14264e-06
1.14705e-06
1.14723e-06
1.38832e-06
1.39523e-06
1.14254e-06
1.14713e-06
1.14714e-06
1.39527e-06
1.39829e-06
1.40037e-06
1.14814e-06
1.14817e-06
1.15006e-06
1.15009e-06
1.39824e-06
1.40031e-06
1.14804e-06
1.14821e-06
1.14996e-06
1.15012e-06
1.14823e-06
1.14997e-06
1.15014e-06
1.39833e-06
1.40041e-06
1.14814e-06
1.15004e-06
1.15005e-06
1.40045e-06
1.40268e-06
1.40232e-06
1.15043e-06
1.15047e-06
1.15101e-06
1.15104e-06
1.40263e-06
1.40227e-06
1.15034e-06
1.1505e-06
1.15091e-06
1.15108e-06
1.15052e-06
1.15092e-06
1.1511e-06
1.40272e-06
1.40236e-06
1.15043e-06
1.151e-06
1.151e-06
1.4024e-06
1.40427e-06
1.40266e-06
1.15108e-06
1.15111e-06
1.15112e-06
1.15115e-06
1.40423e-06
1.4026e-06
1.15098e-06
1.15114e-06
1.15102e-06
1.15118e-06
1.15117e-06
1.15102e-06
1.1512e-06
1.40431e-06
1.40269e-06
1.15107e-06
1.1511e-06
1.15111e-06
1.40274e-06
1.40453e-06
1.40256e-06
1.1511e-06
1.15114e-06
1.15111e-06
1.15115e-06
1.40448e-06
1.40251e-06
1.15101e-06
1.15117e-06
1.15101e-06
1.15118e-06
1.15119e-06
1.15102e-06
1.1512e-06
1.40457e-06
1.4026e-06
1.1511e-06
1.1511e-06
1.15111e-06
1.40264e-06
1.40448e-06
1.40293e-06
1.15116e-06
1.15119e-06
1.15126e-06
1.15129e-06
1.40444e-06
1.40287e-06
1.15106e-06
1.15123e-06
1.15116e-06
1.15132e-06
1.15125e-06
1.15117e-06
1.15134e-06
1.40452e-06
1.40297e-06
1.15115e-06
1.15124e-06
1.15125e-06
1.40301e-06
1.40478e-06
1.40266e-06
1.15125e-06
1.15129e-06
1.15116e-06
1.15119e-06
1.40473e-06
1.4026e-06
1.15116e-06
1.15132e-06
1.15106e-06
1.15123e-06
1.15134e-06
1.15107e-06
1.15125e-06
1.40481e-06
1.4027e-06
1.15125e-06
1.15115e-06
1.15116e-06
1.40274e-06
1.40448e-06
1.40275e-06
1.15115e-06
1.15119e-06
1.15119e-06
1.15122e-06
1.40442e-06
1.4027e-06
1.15106e-06
1.15122e-06
1.15109e-06
1.15126e-06
1.15124e-06
1.1511e-06
1.15128e-06
1.40451e-06
1.40279e-06
1.15115e-06
1.15118e-06
1.15119e-06
1.40284e-06
1.40465e-06
1.40283e-06
1.15121e-06
1.15125e-06
1.1512e-06
1.15123e-06
1.40461e-06
1.40277e-06
1.15112e-06
1.15128e-06
1.1511e-06
1.15126e-06
1.1513e-06
1.1511e-06
1.15128e-06
1.40469e-06
1.40286e-06
1.15121e-06
1.15118e-06
1.15119e-06
1.4029e-06
1.40467e-06
1.40263e-06
1.15118e-06
1.15122e-06
1.15117e-06
1.1512e-06
1.40461e-06
1.40258e-06
1.15109e-06
1.15125e-06
1.15107e-06
1.15124e-06
1.15127e-06
1.15108e-06
1.15126e-06
1.4047e-06
1.40268e-06
1.15118e-06
1.15116e-06
1.15117e-06
1.40272e-06
1.40453e-06
1.40285e-06
1.15118e-06
1.15121e-06
1.15119e-06
1.15123e-06
1.40448e-06
1.40279e-06
1.15108e-06
1.15125e-06
1.1511e-06
1.15126e-06
1.15127e-06
1.1511e-06
1.15128e-06
1.40458e-06
1.40289e-06
1.15118e-06
1.15118e-06
1.15119e-06
1.40293e-06
1.40471e-06
1.40264e-06
1.15119e-06
1.15123e-06
1.15116e-06
1.1512e-06
1.40465e-06
1.40259e-06
1.1511e-06
1.15126e-06
1.15107e-06
1.15123e-06
1.15128e-06
1.15108e-06
1.15126e-06
1.40474e-06
1.40268e-06
1.15119e-06
1.15116e-06
1.15116e-06
1.40273e-06
1.40452e-06
1.40287e-06
1.15117e-06
1.15121e-06
1.15119e-06
1.15122e-06
1.40447e-06
1.40281e-06
1.15108e-06
1.15124e-06
1.15109e-06
1.15126e-06
1.15126e-06
1.1511e-06
1.15128e-06
1.40456e-06
1.4029e-06
1.15117e-06
1.15118e-06
1.15119e-06
1.40295e-06
1.40472e-06
1.40266e-06
1.15119e-06
1.15123e-06
1.15116e-06
1.1512e-06
1.40466e-06
1.40262e-06
1.1511e-06
1.15126e-06
1.15107e-06
1.15123e-06
1.15128e-06
1.15107e-06
1.15126e-06
1.40475e-06
1.40272e-06
1.15119e-06
1.15116e-06
1.15116e-06
1.40276e-06
1.40455e-06
1.40283e-06
1.15117e-06
1.15121e-06
1.15117e-06
1.15121e-06
1.40453e-06
1.40276e-06
1.15108e-06
1.15124e-06
1.15108e-06
1.15124e-06
1.15127e-06
1.15108e-06
1.15126e-06
1.40461e-06
1.40286e-06
1.15117e-06
1.15116e-06
1.15117e-06
1.40291e-06
1.40467e-06
1.40271e-06
1.15118e-06
1.15121e-06
1.15117e-06
1.1512e-06
1.40461e-06
1.40268e-06
1.15108e-06
1.15125e-06
1.15107e-06
1.15124e-06
1.15127e-06
1.15108e-06
1.15126e-06
1.4047e-06
1.40277e-06
1.15118e-06
1.15116e-06
1.15116e-06
1.4028e-06
1.40461e-06
1.40276e-06
1.15118e-06
1.15122e-06
1.15116e-06
1.1512e-06
1.40459e-06
1.40268e-06
1.15108e-06
1.15125e-06
1.15107e-06
1.15123e-06
1.15127e-06
1.15107e-06
1.15126e-06
1.40467e-06
1.40278e-06
1.15117e-06
1.15116e-06
1.15116e-06
1.40283e-06
1.4046e-06
1.40279e-06
1.15118e-06
1.15121e-06
1.15116e-06
1.1512e-06
1.40453e-06
1.40276e-06
1.15108e-06
1.15125e-06
1.15106e-06
1.15123e-06
1.15127e-06
1.15107e-06
1.15125e-06
1.40463e-06
1.40285e-06
1.15118e-06
1.15115e-06
1.15116e-06
1.40289e-06
1.40469e-06
1.40268e-06
1.15118e-06
1.15122e-06
1.15115e-06
1.15119e-06
1.40464e-06
1.40264e-06
1.15109e-06
1.15125e-06
1.15106e-06
1.15123e-06
1.15127e-06
1.15107e-06
1.15125e-06
1.40473e-06
1.40274e-06
1.15118e-06
1.15115e-06
1.15115e-06
1.40278e-06
1.40457e-06
1.40275e-06
1.15118e-06
1.15122e-06
1.15115e-06
1.15118e-06
1.40455e-06
1.40268e-06
1.15109e-06
1.15126e-06
1.15105e-06
1.15122e-06
1.15128e-06
1.15106e-06
1.15124e-06
1.40464e-06
1.40277e-06
1.15118e-06
1.15114e-06
1.15115e-06
1.40282e-06
1.40458e-06
1.40281e-06
1.15118e-06
1.15122e-06
1.15114e-06
1.15118e-06
1.40452e-06
1.40276e-06
1.15109e-06
1.15126e-06
1.15105e-06
1.15121e-06
1.15128e-06
1.15105e-06
1.15124e-06
1.40461e-06
1.40285e-06
1.15119e-06
1.15114e-06
1.15114e-06
1.4029e-06
1.40467e-06
1.40275e-06
1.15119e-06
1.15123e-06
1.15113e-06
1.15117e-06
1.40462e-06
1.40271e-06
1.1511e-06
1.15126e-06
1.15104e-06
1.1512e-06
1.15129e-06
1.15105e-06
1.15123e-06
1.40469e-06
1.40282e-06
1.15119e-06
1.15113e-06
1.15113e-06
1.40287e-06
1.40466e-06
1.40269e-06
1.15121e-06
1.15124e-06
1.15112e-06
1.15115e-06
1.40462e-06
1.40264e-06
1.15111e-06
1.15128e-06
1.15103e-06
1.15119e-06
1.1513e-06
1.15103e-06
1.15121e-06
1.40471e-06
1.40275e-06
1.1512e-06
1.15111e-06
1.15112e-06
1.4028e-06
1.40458e-06
1.40274e-06
1.15122e-06
1.15126e-06
1.15111e-06
1.15114e-06
1.40455e-06
1.40265e-06
1.15113e-06
1.15129e-06
1.15101e-06
1.15118e-06
1.15132e-06
1.15102e-06
1.1512e-06
1.40466e-06
1.40274e-06
1.15122e-06
1.1511e-06
1.1511e-06
1.40279e-06
1.40458e-06
1.4028e-06
1.15125e-06
1.15128e-06
1.15109e-06
1.15113e-06
1.40453e-06
1.4027e-06
1.15116e-06
1.15132e-06
1.151e-06
1.15117e-06
1.15134e-06
1.151e-06
1.15118e-06
1.40461e-06
1.4028e-06
1.15124e-06
1.15109e-06
1.15109e-06
1.40285e-06
1.40466e-06
1.40251e-06
1.15129e-06
1.15132e-06
1.15069e-06
1.15073e-06
1.40455e-06
1.40251e-06
1.1512e-06
1.15136e-06
1.1506e-06
1.15076e-06
1.15138e-06
1.15061e-06
1.15078e-06
1.40463e-06
1.40262e-06
1.15128e-06
1.15068e-06
1.15068e-06
1.40264e-06
1.40429e-06
1.38338e-06
1.15099e-06
1.15102e-06
1.12959e-06
1.12961e-06
1.40427e-06
1.38336e-06
1.15089e-06
1.15106e-06
1.12956e-06
1.12958e-06
1.15108e-06
1.12962e-06
1.12965e-06
1.40435e-06
1.38341e-06
1.15097e-06
1.12962e-06
1.12962e-06
1.38342e-06
1.36179e-06
1.09251e-06
1.09253e-06
1.36179e-06
1.0925e-06
1.09249e-06
5.96765e-07
5.96737e-07
5.96785e-07
1.09257e-06
1.36182e-06
1.09256e-06
1.49584e-08
3.14676e-09
9.44458e-09
9.43737e-09
1.49576e-09
4.32931e-09
1.18561e-08
5.05331e-09
1.47341e-09
4.58065e-09
5.2875e-09
6.24313e-09
5.19e-09
5.74694e-09
3.79012e-09
7.28964e-09
1.63159e-07
5.78252e-09
2.59333e-07
1.63035e-06
3.20566e-06
7.49013e-09
1.63269e-07
5.79983e-09
2.5872e-07
5.48222e-09
5.56554e-09
5.44234e-09
5.43572e-09
5.44805e-09
5.5514e-09
5.40735e-09
1.47352e-09
8.78799e-08
2.927e-09
4.70247e-09
1.49032e-09
6.57429e-08
2.8834e-09
1.62766e-06
3.21587e-06
1.45869e-09
4.57053e-09
9.36182e-08
6.99532e-09
1.47381e-09
4.48143e-09
7.16243e-08
2.12417e-07
2.15698e-07
4.78878e-09
1.8088e-07
1.8479e-07
1.63165e-08
4.6068e-07
1.19131e-08
6.76034e-07
7.13087e-06
1.01636e-05
1.72941e-08
4.60095e-07
1.17283e-08
6.81664e-07
5.44723e-09
5.54894e-09
5.40922e-09
5.43614e-09
5.44987e-09
5.54529e-09