/*--------------------------------*- C++ -*----------------------------------*\
| =========                 |                                                 |
| \\      /  F ield         | OpenFOAM: The Open Source CFD Toolbox           |
|  \\    /   O peration     | Version:  v1906                                 |
|   \\  /    A nd           | Web:      www.OpenFOAM.com                      |
|    \\/     M anipulation  |                                                 |
\*---------------------------------------------------------------------------*/
FoamFile
{
    version     2.0;
    format      ascii;
    class       volScalarField;
    location    "262.5";
    object      k;
}
// * * * * * * * * * * * * * * * * * * * * * * * * * * * * * * * * * * * * * //

dimensions      [0 2 -2 0 0 0 0];


internalField   nonuniform List<scalar> 
171728
(
7.69638e-07
3.56148e-07
4.22605e-07
3.55358e-07
7.60438e-07
3.36567e-07
4.31939e-07
3.36904e-07
7.68541e-07
3.20255e-07
4.70489e-07
3.19286e-07
7.77415e-07
3.0476e-07
5.0802e-07
3.02725e-07
7.86512e-07
2.90904e-07
5.02674e-07
2.88443e-07
7.96479e-07
2.79802e-07
4.18943e-07
2.7627e-07
8.07254e-07
2.70104e-07
3.58141e-07
2.65147e-07
8.18837e-07
2.62037e-07
3.23561e-07
2.55855e-07
8.30588e-07
2.55528e-07
2.88564e-07
2.48489e-07
8.43654e-07
2.5101e-07
2.51672e-07
2.41885e-07
8.56481e-07
2.48604e-07
2.23294e-07
2.35034e-07
8.70121e-07
2.47015e-07
2.07097e-07
2.2935e-07
8.83681e-07
2.46629e-07
2.01058e-07
2.25395e-07
8.97632e-07
2.47655e-07
2.01817e-07
2.22559e-07
9.11897e-07
2.51125e-07
2.11069e-07
2.22005e-07
9.25587e-07
2.5708e-07
2.3565e-07
2.25931e-07
9.39681e-07
2.7159e-07
2.81705e-07
2.36661e-07
9.55184e-07
2.83355e-07
3.67362e-07
2.59737e-07
9.70625e-07
3.30428e-07
4.72748e-07
3.04205e-07
9.87546e-07
3.77836e-07
5.43159e-07
3.58178e-07
1.00104e-06
4.54912e-07
6.24453e-07
5.07056e-07
1.02125e-06
5.65209e-07
7.45442e-07
7.24536e-07
1.0353e-06
7.46978e-07
7.77024e-07
1.28152e-06
1.06037e-06
9.12535e-07
1.10988e-06
1.54123e-06
1.07405e-06
1.39314e-06
1.45461e-06
3.27774e-06
1.10991e-06
1.64188e-06
1.69324e-06
3.16628e-06
1.12654e-06
2.62561e-06
2.28691e-06
7.07373e-06
1.18069e-06
2.72718e-06
2.78393e-06
6.2755e-06
1.21689e-06
3.60134e-06
3.91437e-06
1.17744e-05
1.27637e-06
4.63171e-06
4.4164e-06
1.25513e-05
1.34764e-06
5.3734e-06
5.78276e-06
1.59405e-05
1.43601e-06
6.90808e-06
6.41173e-06
1.74879e-05
1.55701e-06
7.48578e-06
8.13839e-06
2.04721e-05
1.67757e-06
1.00634e-05
9.05986e-06
2.16718e-05
1.90222e-06
1.04262e-05
1.1344e-05
2.41332e-05
1.97791e-06
1.21845e-05
1.1676e-05
2.47789e-05
2.43724e-06
1.46356e-05
1.46629e-05
2.77684e-05
2.57435e-06
1.55816e-05
1.5667e-05
2.83035e-05
3.02081e-06
1.74633e-05
1.7446e-05
2.96856e-05
3.41729e-06
1.94849e-05
1.94064e-05
3.10604e-05
4.04121e-06
2.10941e-05
2.12967e-05
3.22053e-05
4.58995e-06
2.33132e-05
2.3103e-05
3.34608e-05
5.2966e-06
2.47539e-05
2.48688e-05
3.45298e-05
6.18006e-06
2.67664e-05
2.68857e-05
3.58201e-05
7.00157e-06
2.83898e-05
2.82701e-05
3.67546e-05
8.10369e-06
3.00333e-05
3.00885e-05
3.79357e-05
9.09838e-06
3.17775e-05
3.15869e-05
3.89733e-05
1.02795e-05
3.3279e-05
3.33052e-05
3.99688e-05
1.16073e-05
3.43786e-05
3.46706e-05
4.10644e-05
1.29379e-05
3.61533e-05
3.59092e-05
4.18097e-05
1.44044e-05
3.72962e-05
3.7437e-05
4.31673e-05
1.56852e-05
3.87451e-05
3.85445e-05
4.36386e-05
1.7498e-05
3.97941e-05
3.96372e-05
4.46154e-05
1.86226e-05
4.06728e-05
4.076e-05
4.5194e-05
2.09773e-05
4.23156e-05
4.23482e-05
4.67026e-05
2.18001e-05
4.19438e-05
4.19572e-05
4.60034e-05
2.14654e-05
4.1373e-05
4.13738e-05
4.52334e-05
2.36055e-05
4.39578e-05
4.39471e-05
4.76664e-05
2.82706e-05
4.72921e-05
4.72874e-05
5.07141e-05
3.10263e-05
4.89453e-05
4.8943e-05
5.22055e-05
3.14777e-05
4.85626e-05
4.85605e-05
5.13332e-05
2.87984e-05
4.55984e-05
4.56033e-05
4.86342e-05
2.50547e-05
4.22182e-05
4.22227e-05
4.53386e-05
2.28399e-05
4.07612e-05
4.07642e-05
4.3931e-05
2.37836e-05
4.25331e-05
4.25348e-05
4.57875e-05
2.92619e-05
4.58544e-05
4.58556e-05
4.87049e-05
3.37754e-05
4.84248e-05
4.84259e-05
5.10203e-05
3.65789e-05
4.9943e-05
4.99442e-05
5.2389e-05
3.79344e-05
5.06585e-05
5.06596e-05
5.30494e-05
3.85231e-05
5.09705e-05
5.09713e-05
5.33376e-05
3.87582e-05
5.10865e-05
5.10872e-05
5.34464e-05
3.881e-05
5.11037e-05
5.11045e-05
5.34742e-05
3.88134e-05
5.1099e-05
5.10998e-05
5.34595e-05
3.88283e-05
5.11142e-05
5.11149e-05
5.34841e-05
3.8825e-05
5.11066e-05
5.11074e-05
5.34758e-05
3.88242e-05
5.11074e-05
5.11083e-05
5.3468e-05
3.88257e-05
5.11102e-05
5.11109e-05
5.34854e-05
3.8824e-05
5.11065e-05
5.11073e-05
5.34668e-05
3.88249e-05
5.11094e-05
5.11103e-05
5.34827e-05
3.8824e-05
5.11066e-05
5.11073e-05
5.34684e-05
3.88245e-05
5.11093e-05
5.11102e-05
5.34824e-05
3.88239e-05
5.11071e-05
5.11079e-05
5.34677e-05
3.88239e-05
5.11082e-05
5.11088e-05
5.34832e-05
3.88237e-05
5.11078e-05
5.11086e-05
5.34668e-05
3.88237e-05
5.11079e-05
5.11087e-05
5.34807e-05
3.88237e-05
5.11081e-05
5.11089e-05
5.34775e-05
3.88237e-05
5.11081e-05
5.11089e-05
5.34679e-05
3.88237e-05
5.11083e-05
5.1109e-05
5.34797e-05
3.88238e-05
5.11085e-05
5.11092e-05
5.34798e-05
3.88239e-05
5.1109e-05
5.11097e-05
5.34734e-05
3.88242e-05
5.11092e-05
5.11099e-05
5.34677e-05
3.88246e-05
5.11101e-05
5.11108e-05
5.3478e-05
3.88248e-05
5.11119e-05
5.11125e-05
5.34801e-05
3.88134e-05
5.10943e-05
5.10946e-05
5.34698e-05
3.83396e-05
4.99038e-05
4.9903e-05
5.3094e-05
3.65078e-07
3.46976e-07
3.38104e-07
3.52184e-07
3.42841e-07
3.45783e-07
7.88558e-07
7.89242e-07
8.00462e-07
7.87112e-07
3.4269e-07
3.02545e-07
3.55196e-07
3.57698e-07
3.42102e-07
3.56381e-07
3.63763e-07
3.45589e-07
3.52822e-07
3.4535e-07
3.39276e-07
3.32474e-07
3.4974e-07
3.35253e-07
3.49169e-07
3.54629e-07
3.36389e-07
3.41826e-07
2.83849e-07
3.41214e-07
2.77751e-07
3.52265e-07
3.39221e-07
3.50374e-07
4.27404e-07
3.38692e-07
3.38273e-07
3.43245e-07
3.27411e-07
3.35138e-07
3.28203e-07
3.23237e-07
3.16442e-07
3.32247e-07
3.17481e-07
3.32359e-07
3.37658e-07
3.21131e-07
3.26006e-07
2.75841e-07
3.24112e-07
2.70318e-07
3.36475e-07
3.28615e-07
3.34596e-07
4.5824e-07
3.22704e-07
3.20785e-07
3.24726e-07
3.11154e-07
3.19378e-07
3.12904e-07
3.08868e-07
3.03368e-07
3.14565e-07
3.0163e-07
3.17678e-07
3.22327e-07
3.08086e-07
3.11663e-07
2.68688e-07
3.08652e-07
2.64592e-07
3.2689e-07
3.24105e-07
3.18927e-07
5.02389e-07
3.07943e-07
3.04841e-07
3.08596e-07
2.9655e-07
3.05756e-07
3.00495e-07
2.96983e-07
2.9202e-07
2.99153e-07
2.87618e-07
3.05083e-07
3.08303e-07
2.96116e-07
2.99197e-07
2.6353e-07
2.94097e-07
2.61321e-07
3.22536e-07
3.17742e-07
3.04456e-07
5.09717e-07
2.95059e-07
2.90565e-07
2.94224e-07
2.83539e-07
2.94159e-07
2.89387e-07
2.86265e-07
2.82746e-07
2.85221e-07
2.74472e-07
2.93278e-07
2.96391e-07
2.86026e-07
2.88304e-07
2.60769e-07
2.82442e-07
2.59313e-07
3.14994e-07
3.02142e-07
2.92134e-07
4.3957e-07
2.83453e-07
2.78162e-07
2.81426e-07
2.7161e-07
2.83785e-07
2.80697e-07
2.76813e-07
2.74881e-07
2.72405e-07
2.63606e-07
2.83542e-07
2.8575e-07
2.76039e-07
2.78607e-07
2.5899e-07
2.72348e-07
2.58808e-07
2.98282e-07
2.8386e-07
2.8062e-07
3.70311e-07
2.73566e-07
2.67001e-07
2.69579e-07
2.6041e-07
2.74696e-07
2.73345e-07
2.68816e-07
2.69597e-07
2.61813e-07
2.54331e-07
2.73957e-07
2.76422e-07
2.68998e-07
2.70289e-07
2.58894e-07
2.63788e-07
2.58677e-07
2.80674e-07
2.70412e-07
2.71683e-07
3.31021e-07
2.66785e-07
2.57274e-07
2.58517e-07
2.50112e-07
2.67103e-07
2.68464e-07
2.6227e-07
2.64083e-07
2.5276e-07
2.46134e-07
2.67406e-07
2.68484e-07
2.61977e-07
2.6363e-07
2.58319e-07
2.56979e-07
2.57305e-07
2.68275e-07
2.58802e-07
2.65305e-07
2.98156e-07
2.61044e-07
2.4977e-07
2.48353e-07
2.40803e-07
2.60898e-07
2.62415e-07
2.57148e-07
2.5797e-07
2.44655e-07
2.38323e-07
2.60183e-07
2.62284e-07
2.55184e-07
2.58194e-07
2.57006e-07
2.51914e-07
2.56034e-07
2.56437e-07
2.43816e-07
2.59714e-07
2.60335e-07
2.55741e-07
2.42801e-07
2.39369e-07
2.32054e-07
2.56012e-07
2.56625e-07
2.53376e-07
2.53379e-07
2.3714e-07
2.30999e-07
2.53918e-07
2.56968e-07
2.51115e-07
2.5375e-07
2.55689e-07
2.49016e-07
2.55428e-07
2.42297e-07
2.31087e-07
2.54518e-07
2.29233e-07
2.51262e-07
2.35589e-07
2.31384e-07
2.25272e-07
2.52699e-07
2.52375e-07
2.50801e-07
2.50005e-07
2.30426e-07
2.24944e-07
2.50857e-07
2.52916e-07
2.50424e-07
2.50767e-07
2.55524e-07
2.47214e-07
2.55727e-07
2.30167e-07
2.20391e-07
2.50281e-07
2.10151e-07
2.48325e-07
2.29709e-07
2.24852e-07
2.21245e-07
2.50247e-07
2.49829e-07
2.49601e-07
2.50113e-07
2.24541e-07
2.20591e-07
2.50491e-07
2.50136e-07
2.51431e-07
2.49151e-07
2.55891e-07
2.46622e-07
2.56385e-07
2.1981e-07
2.12317e-07
2.47656e-07
2.01514e-07
2.46763e-07
2.25558e-07
2.21161e-07
2.20393e-07
2.49613e-07
2.50434e-07
2.50247e-07
2.51367e-07
2.20435e-07
2.17774e-07
2.52179e-07
2.4914e-07
2.55642e-07
2.49613e-07
2.56639e-07
2.47142e-07
2.58104e-07
2.12009e-07
2.06922e-07
2.46771e-07
2.01354e-07
2.4745e-07
2.22471e-07
2.20698e-07
2.2083e-07
2.50649e-07
2.51798e-07
2.53262e-07
2.53784e-07
2.17868e-07
2.16397e-07
2.56823e-07
2.50095e-07
2.59184e-07
2.52561e-07
2.58934e-07
2.49941e-07
2.62156e-07
2.07013e-07
2.06501e-07
2.47967e-07
2.07283e-07
2.50741e-07
2.213e-07
2.2154e-07
2.21794e-07
2.54595e-07
2.55156e-07
2.59928e-07
2.60751e-07
2.16992e-07
2.1841e-07
2.59547e-07
2.53953e-07
2.59216e-07
2.59334e-07
2.63672e-07
2.56039e-07
2.69419e-07
2.07551e-07
2.12346e-07
2.5213e-07
2.28334e-07
2.57957e-07
2.23944e-07
2.23032e-07
2.26806e-07
2.61846e-07
2.62153e-07
2.71186e-07
2.72862e-07
2.19438e-07
2.27032e-07
2.5925e-07
2.61795e-07
2.62236e-07
2.70212e-07
2.72333e-07
2.66854e-07
2.83156e-07
2.14674e-07
2.26487e-07
2.60633e-07
2.67932e-07
2.69389e-07
2.32794e-07
2.29711e-07
2.40638e-07
2.73926e-07
2.77604e-07
2.89529e-07
2.84333e-07
2.3164e-07
2.33664e-07
2.63847e-07
2.74916e-07
2.75109e-07
2.89031e-07
2.87645e-07
2.785e-07
3.06429e-07
2.31439e-07
2.56056e-07
2.73236e-07
3.42987e-07
2.89657e-07
2.53284e-07
2.48897e-07
2.68438e-07
2.95653e-07
2.88999e-07
3.17896e-07
3.27042e-07
2.37858e-07
3.00336e-07
2.80731e-07
2.96214e-07
3.03496e-07
3.19902e-07
3.11389e-07
3.2292e-07
3.37641e-07
2.64432e-07
3.08234e-07
2.94172e-07
4.38258e-07
3.19563e-07
2.86285e-07
2.81599e-07
3.33385e-07
3.26748e-07
3.34041e-07
3.62357e-07
3.59628e-07
3.13441e-07
3.27341e-07
3.13789e-07
3.31351e-07
3.41821e-07
3.63355e-07
3.49912e-07
3.55647e-07
3.771e-07
3.19287e-07
3.89885e-07
3.3098e-07
5.21235e-07
3.58532e-07
3.40768e-07
3.57563e-07
4.84027e-07
3.77447e-07
3.81173e-07
4.46581e-07
4.33279e-07
3.51285e-07
4.72237e-07
3.57892e-07
3.75332e-07
4.3663e-07
4.47636e-07
3.97505e-07
4.27734e-07
4.54605e-07
4.00782e-07
5.28425e-07
3.79449e-07
6.21336e-07
4.30265e-07
4.87346e-07
5.08852e-07
6.20814e-07
4.56935e-07
4.49836e-07
5.34493e-07
5.4319e-07
4.92779e-07
6.80442e-07
4.4608e-07
4.56896e-07
5.14361e-07
5.40771e-07
4.77772e-07
5.24978e-07
5.5939e-07
5.56099e-07
7.03326e-07
4.54957e-07
6.92136e-07
5.25288e-07
6.87822e-07
7.86491e-07
9.93155e-07
6.13391e-07
5.73515e-07
6.78442e-07
6.8611e-07
7.22906e-07
1.10588e-06
5.88106e-07
6.11198e-07
6.51531e-07
6.91545e-07
5.81462e-07
6.93003e-07
7.6441e-07
8.79329e-07
1.03944e-06
5.53387e-07
7.77348e-07
7.11509e-07
1.14139e-06
9.96308e-07
1.94722e-06
6.88633e-07
7.63006e-07
9.64106e-07
8.89083e-07
1.188e-06
1.52096e-06
6.70867e-07
6.99971e-07
9.15434e-07
8.91777e-07
8.22257e-07
8.68523e-07
8.87171e-07
1.03031e-06
1.59168e-06
7.61016e-07
9.93679e-07
8.5371e-07
1.46691e-06
2.23129e-06
2.5116e-06
1.08195e-06
9.23932e-07
1.19841e-06
1.37727e-06
1.5713e-06
3.24483e-06
1.01585e-06
9.92646e-07
1.2245e-06
1.23721e-06
9.40476e-07
1.35122e-06
1.3796e-06
1.96559e-06
2.87372e-06
9.07881e-07
1.37797e-06
1.34652e-06
3.07045e-06
2.54365e-06
4.05561e-06
1.21468e-06
1.41734e-06
1.69502e-06
1.41851e-06
3.32759e-06
2.54857e-06
1.24176e-06
1.31535e-06
1.61681e-06
1.59958e-06
1.422e-06
1.42082e-06
1.50204e-06
2.96853e-06
3.69638e-06
1.4154e-06
1.64845e-06
1.46419e-06
3.09886e-06
4.73236e-06
5.19538e-06
1.89163e-06
1.59731e-06
2.04896e-06
2.7055e-06
2.79676e-06
9.6008e-06
1.83291e-06
1.66719e-06
2.00967e-06
2.11114e-06
1.69847e-06
2.62247e-06
2.32414e-06
4.00861e-06
5.25634e-06
1.56449e-06
2.0706e-06
2.32412e-06
6.91474e-06
5.18822e-06
8.40821e-06
2.07552e-06
2.7136e-06
2.92601e-06
2.64791e-06
9.63632e-06
6.45208e-06
2.04339e-06
2.32788e-06
2.89621e-06
2.68192e-06
2.36968e-06
2.60434e-06
2.43663e-06
5.89808e-06
7.573e-06
2.39722e-06
2.73289e-06
2.46183e-06
6.23055e-06
9.12512e-06
9.49323e-06
3.16868e-06
2.72994e-06
3.33222e-06
3.23409e-06
6.67649e-06
9.58362e-06
3.13759e-06
2.74269e-06
3.31243e-06
3.58359e-06
2.51315e-06
3.30568e-06
3.67815e-06
7.69941e-06
9.82678e-06
2.53685e-06
3.49882e-06
3.71322e-06
1.0832e-05
9.51344e-06
1.30861e-05
3.45157e-06
3.5631e-06
4.46476e-06
4.5648e-06
9.78666e-06
1.33045e-05
3.42106e-06
3.94163e-06
4.25965e-06
4.33095e-06
4.06589e-06
4.43193e-06
4.43003e-06
1.08426e-05
1.269e-05
4.05596e-06
4.38595e-06
4.33796e-06
1.25318e-05
1.37892e-05
1.46549e-05
4.56474e-06
4.7096e-06
5.34843e-06
5.03541e-06
1.37561e-05
1.43323e-05
4.5017e-06
4.37224e-06
5.4576e-06
5.33016e-06
4.45118e-06
5.11484e-06
5.37286e-06
1.27416e-05
1.46232e-05
4.3683e-06
5.2883e-06
5.43485e-06
1.47949e-05
1.51754e-05
1.70098e-05
5.52938e-06
5.32761e-06
6.19968e-06
6.67512e-06
1.49473e-05
1.72094e-05
5.62466e-06
5.80578e-06
6.03015e-06
6.32367e-06
5.80826e-06
6.60982e-06
6.18895e-06
1.57692e-05
1.75153e-05
5.81526e-06
6.28469e-06
6.16468e-06
1.72117e-05
1.74928e-05
1.96926e-05
6.78136e-06
6.99712e-06
7.86193e-06
7.31642e-06
1.76943e-05
1.91342e-05
6.57556e-06
6.45957e-06
7.88285e-06
7.85066e-06
6.39261e-06
7.24141e-06
8.01602e-06
1.77865e-05
1.91499e-05
6.42102e-06
7.82582e-06
8.05427e-06
2.00241e-05
2.00095e-05
2.12662e-05
7.93338e-06
7.49518e-06
8.5971e-06
9.5956e-06
1.94857e-05
2.24849e-05
7.98541e-06
8.14723e-06
8.56346e-06
8.58245e-06
8.23378e-06
9.59176e-06
8.55141e-06
1.96844e-05
2.15147e-05
8.24478e-06
8.57695e-06
8.53553e-06
2.12225e-05
2.18773e-05
2.37997e-05
9.46123e-06
1.01209e-05
1.09738e-05
1.05266e-05
2.30413e-05
2.29973e-05
9.34878e-06
9.07308e-06
1.09129e-05
1.1093e-05
8.96734e-06
1.04193e-05
1.1036e-05
2.20725e-05
2.39015e-05
8.93073e-06
1.10926e-05
1.1016e-05
2.38849e-05
2.39423e-05
2.44497e-05
1.10599e-05
1.05298e-05
1.13671e-05
1.11018e-05
2.30578e-05
2.45001e-05
1.10235e-05
1.13497e-05
1.13457e-05
1.15453e-05
1.1271e-05
1.11476e-05
1.14801e-05
2.41389e-05
2.43954e-05
1.12561e-05
1.15236e-05
1.14735e-05
2.44224e-05
2.50229e-05
2.73754e-05
1.19537e-05
1.21375e-05
1.41585e-05
1.43597e-05
2.54003e-05
2.74114e-05
1.18888e-05
1.17074e-05
1.41539e-05
1.40508e-05
1.16779e-05
1.43577e-05
1.40633e-05
2.475e-05
2.73209e-05
1.16951e-05
1.40185e-05
1.40572e-05
2.73657e-05
2.76262e-05
2.79376e-05
1.45797e-05
1.46076e-05
1.52768e-05
1.52724e-05
2.76102e-05
2.7894e-05
1.46486e-05
1.4685e-05
1.51913e-05
1.54951e-05
1.46561e-05
1.52091e-05
1.54252e-05
2.77793e-05
2.81714e-05
1.4637e-05
1.55247e-05
1.54523e-05
2.81249e-05
2.81791e-05
2.9392e-05
1.55292e-05
1.56886e-05
1.69663e-05
1.68337e-05
2.81636e-05
2.93697e-05
1.54094e-05
1.56693e-05
1.7108e-05
1.69351e-05
1.56867e-05
1.69617e-05
1.69153e-05
2.83338e-05
2.9237e-05
1.56723e-05
1.68131e-05
1.68782e-05
2.92783e-05
2.97999e-05
3.06697e-05
1.75709e-05
1.72919e-05
1.89802e-05
1.91819e-05
2.97264e-05
3.07864e-05
1.76948e-05
1.75427e-05
1.87297e-05
1.8956e-05
1.73935e-05
1.90821e-05
1.89634e-05
2.96692e-05
3.08178e-05
1.74256e-05
1.90083e-05
1.89986e-05
3.07659e-05
3.09293e-05
3.2032e-05
1.93059e-05
1.96106e-05
2.0746e-05
2.05676e-05
3.10871e-05
3.18421e-05
1.91011e-05
1.93488e-05
2.09224e-05
2.0955e-05
1.94426e-05
2.05447e-05
2.07287e-05
3.10844e-05
3.19688e-05
1.94165e-05
2.08484e-05
2.07197e-05
3.19183e-05
3.24003e-05
3.31495e-05
2.13997e-05
2.11558e-05
2.27076e-05
2.28721e-05
3.21395e-05
3.33312e-05
2.15251e-05
2.14477e-05
2.2608e-05
2.25041e-05
2.11923e-05
2.29001e-05
2.26244e-05
3.22823e-05
3.31178e-05
2.12351e-05
2.25364e-05
2.26661e-05
3.31836e-05
3.3348e-05
3.42631e-05
2.29404e-05
2.31602e-05
2.43608e-05
2.42566e-05
3.35707e-05
3.41813e-05
2.28913e-05
2.29892e-05
2.43213e-05
2.46344e-05
2.30875e-05
2.42983e-05
2.43974e-05
3.33927e-05
3.43978e-05
2.30828e-05
2.4586e-05
2.43485e-05
3.42533e-05
3.4635e-05
3.55606e-05
2.50411e-05
2.4878e-05
2.63372e-05
2.64275e-05
3.44748e-05
3.55665e-05
2.49448e-05
2.50041e-05
2.64055e-05
2.61736e-05
2.48264e-05
2.63257e-05
2.63078e-05
3.4635e-05
3.54167e-05
2.48168e-05
2.62077e-05
2.63679e-05
3.55471e-05
3.57472e-05
3.65612e-05
2.65939e-05
2.67066e-05
2.79972e-05
2.78116e-05
3.5781e-05
3.6497e-05
2.67294e-05
2.67576e-05
2.789e-05
2.81249e-05
2.68219e-05
2.7932e-05
2.79588e-05
3.57461e-05
3.66461e-05
2.68575e-05
2.81264e-05
2.79545e-05
3.65459e-05
3.68851e-05
3.77531e-05
2.85831e-05
2.84112e-05
2.9727e-05
2.98702e-05
3.67958e-05
3.77251e-05
2.84094e-05
2.8372e-05
2.98587e-05
2.95563e-05
2.82906e-05
2.97165e-05
2.96483e-05
3.67972e-05
3.75093e-05
2.83016e-05
2.94612e-05
2.9642e-05
3.76502e-05
3.79294e-05
3.86691e-05
2.9998e-05
3.0069e-05
3.12879e-05
3.10096e-05
3.78886e-05
3.85774e-05
3.02111e-05
3.01096e-05
3.12061e-05
3.1315e-05
3.01219e-05
3.12236e-05
3.13657e-05
3.78601e-05
3.88028e-05
3.00876e-05
3.13549e-05
3.12827e-05
3.87702e-05
3.89351e-05
3.97073e-05
3.17679e-05
3.16181e-05
3.2783e-05
3.3252e-05
3.8922e-05
4.00187e-05
3.1574e-05
3.15836e-05
3.27689e-05
3.28499e-05
3.17499e-05
3.31005e-05
3.2793e-05
3.89544e-05
3.97441e-05
3.16702e-05
3.27914e-05
3.27946e-05
3.97402e-05
3.98895e-05
4.07532e-05
3.30546e-05
3.34946e-05
3.42328e-05
3.41306e-05
4.01497e-05
4.04779e-05
3.3179e-05
3.33573e-05
3.44425e-05
3.44604e-05
3.31193e-05
3.39284e-05
3.43504e-05
4.00634e-05
4.08917e-05
3.31609e-05
3.44223e-05
3.44241e-05
4.08352e-05
4.10216e-05
4.17987e-05
3.46919e-05
3.45314e-05
3.5768e-05
3.5705e-05
4.07182e-05
4.18477e-05
3.48203e-05
3.47109e-05
3.56455e-05
3.55574e-05
3.47495e-05
3.57721e-05
3.55304e-05
4.10267e-05
4.15819e-05
3.47955e-05
3.55018e-05
3.54839e-05
4.16228e-05
4.19714e-05
4.26267e-05
3.60948e-05
3.60102e-05
3.70518e-05
3.69219e-05
4.20492e-05
4.25682e-05
3.59372e-05
3.59564e-05
3.6897e-05
3.71169e-05
3.58915e-05
3.70643e-05
3.73172e-05
4.18337e-05
4.28099e-05
3.58393e-05
3.71619e-05
3.73027e-05
4.2949e-05
4.28114e-05
4.35531e-05
3.7297e-05
3.72396e-05
3.81795e-05
3.83451e-05
4.27584e-05
4.36756e-05
3.71646e-05
3.73784e-05
3.81952e-05
3.82052e-05
3.75999e-05
3.8282e-05
3.81637e-05
4.29939e-05
4.35282e-05
3.75973e-05
3.81898e-05
3.81525e-05
4.349e-05
4.37993e-05
4.44807e-05
3.85785e-05
3.8736e-05
3.94862e-05
3.94392e-05
4.39299e-05
4.44795e-05
3.86635e-05
3.85835e-05
3.96483e-05
3.94833e-05
3.85359e-05
3.97099e-05
3.96285e-05
4.37292e-05
4.44084e-05
3.85131e-05
3.94962e-05
3.96239e-05
4.45115e-05
4.45642e-05
4.50744e-05
3.9602e-05
3.95054e-05
4.02868e-05
4.01638e-05
4.45417e-05
4.49684e-05
3.97403e-05
3.96046e-05
4.03422e-05
4.03244e-05
3.97511e-05
4.01766e-05
4.01666e-05
4.45115e-05
4.50793e-05
3.97577e-05
4.02713e-05
4.01441e-05
4.49021e-05
4.54136e-05
4.66392e-05
4.08013e-05
4.07074e-05
4.22117e-05
4.22005e-05
4.53099e-05
4.66129e-05
4.086e-05
4.08461e-05
4.224e-05
4.22204e-05
4.06628e-05
4.21388e-05
4.21856e-05
4.54126e-05
4.66264e-05
4.06165e-05
4.21789e-05
4.21585e-05
4.65818e-05
4.67235e-05
4.59753e-05
4.237e-05
4.2374e-05
4.22725e-05
4.22942e-05
4.67079e-05
4.60052e-05
4.2383e-05
4.23609e-05
4.2257e-05
4.22293e-05
4.23845e-05
4.22385e-05
4.23362e-05
4.67118e-05
4.59552e-05
4.23755e-05
4.22619e-05
4.23514e-05
4.61014e-05
4.58779e-05
4.51663e-05
4.19693e-05
4.20003e-05
4.14187e-05
4.1441e-05
4.59098e-05
4.51831e-05
4.19299e-05
4.19008e-05
4.13563e-05
4.13435e-05
4.20498e-05
4.13663e-05
4.13888e-05
4.5855e-05
4.51235e-05
4.20841e-05
4.13681e-05
4.14172e-05
4.51767e-05
4.52636e-05
4.72319e-05
4.14283e-05
4.14491e-05
4.3105e-05
4.31171e-05
4.52728e-05
4.72338e-05
4.13643e-05
4.13556e-05
4.30644e-05
4.31086e-05
4.13819e-05
4.30606e-05
4.29262e-05
4.52216e-05
4.72324e-05
4.14084e-05
4.3049e-05
4.29203e-05
4.71149e-05
4.77611e-05
5.02246e-05
4.39764e-05
4.399e-05
4.65166e-05
4.65322e-05
4.77642e-05
5.0238e-05
4.3958e-05
4.3998e-05
4.65221e-05
4.65556e-05
4.38571e-05
4.65405e-05
4.6505e-05
4.7768e-05
5.02503e-05
4.38464e-05
4.65342e-05
4.64916e-05
5.02107e-05
5.07167e-05
5.20649e-05
4.72631e-05
4.72793e-05
4.87165e-05
4.87308e-05
5.0732e-05
5.20832e-05
4.72691e-05
4.73001e-05
4.87184e-05
4.87411e-05
4.72704e-05
4.87482e-05
4.87518e-05
5.07435e-05
5.20886e-05
4.72587e-05
4.8746e-05
4.87459e-05
5.20984e-05
5.21683e-05
5.14574e-05
4.8915e-05
4.89276e-05
4.89118e-05
4.89181e-05
5.21862e-05
5.14628e-05
4.89155e-05
4.8935e-05
4.89084e-05
4.89172e-05
4.89541e-05
4.89355e-05
4.89543e-05
5.21903e-05
5.1458e-05
4.895e-05
4.89329e-05
4.89549e-05
5.15045e-05
5.12885e-05
4.89085e-05
4.85503e-05
4.85466e-05
4.64287e-05
4.64163e-05
5.12916e-05
4.88986e-05
4.85405e-05
4.85337e-05
4.64127e-05
4.64037e-05
4.85931e-05
4.6421e-05
4.64412e-05
5.12855e-05
4.88974e-05
4.86004e-05
4.64248e-05
4.64489e-05
4.89247e-05
4.86216e-05
4.55993e-05
4.56088e-05
4.55957e-05
4.29917e-05
4.29807e-05
4.86119e-05
4.55904e-05
4.55929e-05
4.55849e-05
4.29783e-05
4.29765e-05
4.56139e-05
4.2979e-05
4.2985e-05
4.86108e-05
4.5594e-05
4.56206e-05
4.2984e-05
4.29883e-05
4.5598e-05
4.53404e-05
4.3923e-05
4.22297e-05
4.22201e-05
4.08763e-05
4.08709e-05
4.53326e-05
4.39195e-05
4.22176e-05
4.22179e-05
4.08675e-05
4.08727e-05
4.2222e-05
4.0868e-05
4.08698e-05
4.53359e-05
4.39239e-05
4.22243e-05
4.08712e-05
4.08698e-05
4.39207e-05
4.3933e-05
4.52546e-05
4.07685e-05
4.0764e-05
4.15985e-05
4.15999e-05
4.39298e-05
4.5254e-05
4.07604e-05
4.07665e-05
4.15958e-05
4.16045e-05
4.07629e-05
4.15978e-05
4.16006e-05
4.39342e-05
4.52581e-05
4.07624e-05
4.15994e-05
4.15972e-05
4.52563e-05
4.57858e-05
4.8209e-05
4.25344e-05
4.25355e-05
4.50753e-05
4.50763e-05
4.57855e-05
4.82086e-05
4.25317e-05
4.25388e-05
4.50732e-05
4.50768e-05
4.25365e-05
4.50747e-05
4.50774e-05
4.57889e-05
4.82103e-05
4.25338e-05
4.5076e-05
4.50756e-05
4.82108e-05
4.87034e-05
5.06695e-05
4.58551e-05
4.58561e-05
4.78786e-05
4.78796e-05
4.87031e-05
5.06691e-05
4.58535e-05
4.58562e-05
4.78776e-05
4.78788e-05
4.58573e-05
4.78787e-05
4.78808e-05
4.87044e-05
5.06696e-05
4.58557e-05
4.78798e-05
4.78796e-05
5.0671e-05
5.10191e-05
5.21932e-05
4.84248e-05
4.84257e-05
4.96547e-05
4.96554e-05
5.10187e-05
5.21929e-05
4.84241e-05
4.84248e-05
4.96543e-05
4.96547e-05
4.8427e-05
4.96555e-05
4.96573e-05
5.10191e-05
5.21932e-05
4.84261e-05
4.96567e-05
4.96569e-05
5.2195e-05
5.23873e-05
5.29472e-05
4.99421e-05
4.99427e-05
5.0529e-05
5.05294e-05
5.2387e-05
5.2947e-05
4.99419e-05
4.99421e-05
5.05288e-05
5.0529e-05
4.99448e-05
5.05304e-05
5.05319e-05
5.23873e-05
5.29474e-05
4.99445e-05
5.05315e-05
5.05319e-05
5.29493e-05
5.30474e-05
5.3282e-05
5.0657e-05
5.06573e-05
5.09138e-05
5.09141e-05
5.30473e-05
5.32821e-05
5.06569e-05
5.0657e-05
5.09136e-05
5.09137e-05
5.06599e-05
5.09156e-05
5.09167e-05
5.30476e-05
5.32823e-05
5.066e-05
5.09165e-05
5.09168e-05
5.32841e-05
5.33355e-05
5.34165e-05
5.09686e-05
5.0969e-05
5.1068e-05
5.10685e-05
5.33357e-05
5.34168e-05
5.09685e-05
5.09685e-05
5.10679e-05
5.10679e-05
5.09715e-05
5.10701e-05
5.1071e-05
5.33358e-05
5.34168e-05
5.09717e-05
5.10707e-05
5.10711e-05
5.34187e-05
5.34442e-05
5.34529e-05
5.10844e-05
5.10849e-05
5.11016e-05
5.11021e-05
5.34446e-05
5.34532e-05
5.10844e-05
5.10843e-05
5.11016e-05
5.11014e-05
5.10874e-05
5.11036e-05
5.11047e-05
5.34445e-05
5.34531e-05
5.10876e-05
5.11044e-05
5.11049e-05
5.34551e-05
5.3472e-05
5.34422e-05
5.11017e-05
5.11022e-05
5.10967e-05
5.10972e-05
5.34723e-05
5.3442e-05
5.11017e-05
5.11016e-05
5.10968e-05
5.10967e-05
5.11048e-05
5.10988e-05
5.10999e-05
5.34722e-05
5.34425e-05
5.1105e-05
5.10996e-05
5.11001e-05
5.34445e-05
5.34572e-05
5.34618e-05
5.10969e-05
5.10974e-05
5.11098e-05
5.11105e-05
5.34572e-05
5.34623e-05
5.10969e-05
5.10968e-05
5.11099e-05
5.11098e-05
5.11e-05
5.1112e-05
5.11128e-05
5.34575e-05
5.34621e-05
5.11002e-05
5.11127e-05
5.1113e-05
5.34638e-05
5.3482e-05
5.346e-05
5.11121e-05
5.11127e-05
5.11083e-05
5.11087e-05
5.34825e-05
5.34597e-05
5.11122e-05
5.11119e-05
5.11084e-05
5.11081e-05
5.1115e-05
5.11103e-05
5.11112e-05
5.34823e-05
5.34598e-05
5.11152e-05
5.1111e-05
5.11114e-05
5.34618e-05
5.3474e-05
5.34456e-05
5.11047e-05
5.11051e-05
5.11029e-05
5.11035e-05
5.34738e-05
5.34459e-05
5.11048e-05
5.11045e-05
5.1103e-05
5.11029e-05
5.11076e-05
5.1105e-05
5.1106e-05
5.34738e-05
5.34461e-05
5.11079e-05
5.11059e-05
5.11063e-05
5.3448e-05
5.34654e-05
5.34657e-05
5.11052e-05
5.11059e-05
5.11088e-05
5.11093e-05
5.3466e-05
5.3466e-05
5.11053e-05
5.11053e-05
5.11089e-05
5.11087e-05
5.11084e-05
5.11109e-05
5.11118e-05
5.34661e-05
5.3466e-05
5.11087e-05
5.11116e-05
5.1112e-05
5.34679e-05
5.34834e-05
5.34492e-05
5.11082e-05
5.11086e-05
5.11044e-05
5.11049e-05
5.34836e-05
5.34488e-05
5.11083e-05
5.1108e-05
5.11045e-05
5.11043e-05
5.11111e-05
5.11064e-05
5.11073e-05
5.34835e-05
5.34489e-05
5.11112e-05
5.11072e-05
5.11076e-05
5.34506e-05
5.3465e-05
5.346e-05
5.11044e-05
5.11049e-05
5.11068e-05
5.11074e-05
5.34649e-05
5.34608e-05
5.11046e-05
5.11044e-05
5.11069e-05
5.11068e-05
5.11074e-05
5.11089e-05
5.11099e-05
5.3465e-05
5.34609e-05
5.11077e-05
5.11099e-05
5.11102e-05
5.34628e-05
5.34801e-05
5.3452e-05
5.11074e-05
5.1108e-05
5.11048e-05
5.11053e-05
5.34807e-05
5.34516e-05
5.11075e-05
5.11074e-05
5.11048e-05
5.11047e-05
5.11104e-05
5.11069e-05
5.11079e-05
5.34808e-05
5.34516e-05
5.11107e-05
5.11076e-05
5.11079e-05
5.34536e-05
5.34667e-05
5.34598e-05
5.11043e-05
5.11049e-05
5.11067e-05
5.11074e-05
5.34665e-05
5.34609e-05
5.11044e-05
5.11043e-05
5.11069e-05
5.11068e-05
5.11075e-05
5.11089e-05
5.11099e-05
5.34664e-05
5.34608e-05
5.11076e-05
5.11098e-05
5.11101e-05
5.34625e-05
5.34798e-05
5.34507e-05
5.11072e-05
5.11077e-05
5.11046e-05
5.11053e-05
5.34807e-05
5.34499e-05
5.11074e-05
5.11072e-05
5.11046e-05
5.11045e-05
5.11103e-05
5.11068e-05
5.11078e-05
5.34806e-05
5.34503e-05
5.11105e-05
5.11077e-05
5.1108e-05
5.34525e-05
5.34657e-05
5.34614e-05
5.11048e-05
5.11056e-05
5.11059e-05
5.11067e-05
5.34653e-05
5.3463e-05
5.11048e-05
5.11047e-05
5.11061e-05
5.11061e-05
5.1108e-05
5.11082e-05
5.11091e-05
5.34655e-05
5.34625e-05
5.11082e-05
5.11087e-05
5.1109e-05
5.3464e-05
5.34808e-05
5.34479e-05
5.1106e-05
5.11068e-05
5.11051e-05
5.11059e-05
5.34817e-05
5.34475e-05
5.11062e-05
5.11062e-05
5.11052e-05
5.11051e-05
5.11092e-05
5.11073e-05
5.11083e-05
5.34815e-05
5.34477e-05
5.11092e-05
5.11081e-05
5.11084e-05
5.34498e-05
5.34644e-05
5.34635e-05
5.11055e-05
5.11064e-05
5.11053e-05
5.1106e-05
5.34653e-05
5.34628e-05
5.11055e-05
5.11055e-05
5.11054e-05
5.11053e-05
5.11087e-05
5.11075e-05
5.11085e-05
5.3465e-05
5.34631e-05
5.11088e-05
5.11082e-05
5.11086e-05
5.34653e-05
5.34797e-05
5.34508e-05
5.11057e-05
5.11063e-05
5.11051e-05
5.11059e-05
5.34775e-05
5.34548e-05
5.11058e-05
5.11057e-05
5.1105e-05
5.11051e-05
5.11089e-05
5.11074e-05
5.11083e-05
5.34781e-05
5.34544e-05
5.1109e-05
5.11082e-05
5.11084e-05
5.34553e-05
5.34732e-05
5.34517e-05
5.11058e-05
5.11066e-05
5.11049e-05
5.11056e-05
5.34766e-05
5.34499e-05
5.11058e-05
5.11058e-05
5.1105e-05
5.1105e-05
5.1109e-05
5.11072e-05
5.11081e-05
5.34763e-05
5.34501e-05
5.11091e-05
5.11079e-05
5.11082e-05
5.34523e-05
5.34667e-05
5.34623e-05
5.11058e-05
5.11066e-05
5.11047e-05
5.11055e-05
5.34657e-05
5.34624e-05
5.11058e-05
5.11059e-05
5.11048e-05
5.11049e-05
5.1109e-05
5.11071e-05
5.11082e-05
5.34659e-05
5.3462e-05
5.11091e-05
5.11078e-05
5.11082e-05
5.34645e-05
5.34785e-05
5.34551e-05
5.11058e-05
5.11065e-05
5.11046e-05
5.11054e-05
5.34772e-05
5.34572e-05
5.1106e-05
5.1106e-05
5.11046e-05
5.11047e-05
5.11093e-05
5.11069e-05
5.1108e-05
5.34764e-05
5.34586e-05
5.11092e-05
5.11077e-05
5.1108e-05
5.34588e-05
5.34768e-05
5.34479e-05
5.11061e-05
5.11069e-05
5.11041e-05
5.11049e-05
5.34781e-05
5.3449e-05
5.11062e-05
5.11062e-05
5.11043e-05
5.11043e-05
5.11096e-05
5.11066e-05
5.11078e-05
5.34788e-05
5.34499e-05
5.11096e-05
5.11073e-05
5.11078e-05
5.34521e-05
5.34664e-05
5.34552e-05
5.11065e-05
5.11073e-05
5.11038e-05
5.11044e-05
5.34692e-05
5.34513e-05
5.11066e-05
5.11067e-05
5.1104e-05
5.11037e-05
5.11102e-05
5.11059e-05
5.11069e-05
5.34716e-05
5.34502e-05
5.11101e-05
5.11065e-05
5.11069e-05
5.34514e-05
5.34698e-05
5.34618e-05
5.1107e-05
5.11076e-05
5.11038e-05
5.11042e-05
5.34672e-05
5.3459e-05
5.11071e-05
5.1107e-05
5.1104e-05
5.11036e-05
5.11102e-05
5.11059e-05
5.11072e-05
5.34665e-05
5.34584e-05
5.11102e-05
5.11066e-05
5.11071e-05
5.34633e-05
5.34792e-05
5.34539e-05
5.1108e-05
5.11085e-05
5.11037e-05
5.11042e-05
5.34734e-05
5.34611e-05
5.11082e-05
5.11079e-05
5.11038e-05
5.11037e-05
5.11112e-05
5.11059e-05
5.11069e-05
5.34728e-05
5.34611e-05
5.11111e-05
5.11066e-05
5.11068e-05
5.34601e-05
5.34761e-05
5.3448e-05
5.11098e-05
5.11101e-05
5.11009e-05
5.11018e-05
5.3479e-05
5.34517e-05
5.11099e-05
5.11096e-05
5.11011e-05
5.11012e-05
5.11129e-05
5.11033e-05
5.11042e-05
5.34789e-05
5.3452e-05
5.11128e-05
5.11039e-05
5.11042e-05
5.34515e-05
5.34635e-05
5.32621e-05
5.10918e-05
5.10926e-05
5.09309e-05
5.09317e-05
5.34707e-05
5.32616e-05
5.10919e-05
5.10919e-05
5.09326e-05
5.093e-05
5.1095e-05
5.0935e-05
5.09334e-05
5.34707e-05
5.32615e-05
5.1095e-05
5.09342e-05
5.09349e-05
5.32632e-05
5.30921e-05
4.98992e-05
4.98999e-05
5.30928e-05
4.99011e-05
4.98982e-05
3.83409e-05
3.834e-05
3.83423e-05
4.99015e-05
5.30928e-05
4.99034e-05
2.30818e-06
3.54555e-07
1.44865e-06
1.44561e-06
1.02705e-07
3.47048e-07
5.2845e-07
7.69236e-07
1.04294e-07
3.59336e-07
7.88867e-07
3.08317e-07
3.63148e-07
3.58283e-07
2.66909e-07
3.00928e-07
4.94177e-06
2.62292e-07
6.63182e-06
1.41016e-05
2.16808e-05
3.04962e-07
4.94352e-06
2.56872e-07
6.62144e-06
7.70395e-07
7.82714e-07
7.68316e-07
7.58905e-07
7.59713e-07
7.73698e-07
7.57653e-07
1.04638e-07
7.5425e-07
3.67054e-07
3.51039e-07
1.05315e-07
7.21411e-07
3.6235e-07
1.40612e-05
2.17246e-05
1.04516e-07
4.73741e-07
7.69555e-07
4.23077e-07
1.04889e-07
4.68535e-07
7.59186e-07
1.86234e-06
1.89817e-06
3.47607e-07
1.84601e-06
1.86965e-06
4.83981e-07
9.72199e-06
4.01561e-07
1.25565e-05
3.6924e-05
4.67638e-05
5.01888e-07
9.71506e-06
3.9508e-07
1.26223e-05
7.61386e-07
7.75714e-07
7.59435e-07
7.66619e-07
7.67538e-07
7.83069e-07
7.65819e-07