/*--------------------------------*- C++ -*----------------------------------*\
| =========                 |                                                 |
| \\      /  F ield         | OpenFOAM: The Open Source CFD Toolbox           |
|  \\    /   O peration     | Version:  v1906                                 |
|   \\  /    A nd           | Web:      www.OpenFOAM.com                      |
|    \\/     M anipulation  |                                                 |
\*---------------------------------------------------------------------------*/
FoamFile
{
    version     2.0;
    format      ascii;
    class       volScalarField;
    location    "262.5";
    object      nut;
}
// * * * * * * * * * * * * * * * * * * * * * * * * * * * * * * * * * * * * * //

dimensions      [0 2 -1 0 0 0 0];


internalField   nonuniform List<scalar> 
171728
(
9.74444e-06
2.37527e-06
2.31179e-06
2.27542e-06
9.57683e-06
2.33714e-06
2.41354e-06
2.2644e-06
9.77654e-06
2.34029e-06
3.17618e-06
2.2478e-06
9.98466e-06
2.31866e-06
4.53612e-06
2.21675e-06
1.01943e-05
2.29107e-06
5.46043e-06
2.192e-06
1.04161e-05
2.28172e-06
4.48109e-06
2.17279e-06
1.06455e-05
2.26416e-06
3.70976e-06
2.14391e-06
1.08838e-05
2.24001e-06
3.29125e-06
2.1194e-06
1.11105e-05
2.20717e-06
2.81494e-06
2.10499e-06
1.13575e-05
2.17542e-06
2.2224e-06
2.07938e-06
1.15837e-05
2.14797e-06
1.75719e-06
2.02074e-06
1.18169e-05
2.10275e-06
1.47444e-06
1.94996e-06
1.20344e-05
2.04174e-06
1.3206e-06
1.87666e-06
1.22496e-05
1.96275e-06
1.24834e-06
1.78354e-06
1.24568e-05
1.87611e-06
1.25602e-06
1.67849e-06
1.26354e-05
1.7772e-06
1.37824e-06
1.57671e-06
1.28089e-05
1.71991e-06
1.64231e-06
1.4879e-06
1.30013e-05
1.54922e-06
2.24649e-06
1.45739e-06
1.31753e-05
1.68323e-06
2.86987e-06
1.46277e-06
1.33601e-05
1.69273e-06
2.98899e-06
1.43699e-06
1.3423e-05
1.85001e-06
3.11477e-06
1.94765e-06
1.36285e-05
2.10416e-06
3.22296e-06
2.56103e-06
1.36006e-05
2.71153e-06
2.86147e-06
4.62243e-06
1.38077e-05
2.94238e-06
3.92156e-06
4.57534e-06
1.35974e-05
5.21974e-06
5.29771e-06
1.21088e-05
1.38545e-05
4.62515e-06
5.7352e-06
7.97762e-06
1.34053e-05
1.01375e-05
7.73745e-06
2.62974e-05
1.37232e-05
8.92368e-06
9.19974e-06
1.72876e-05
1.33706e-05
1.18504e-05
1.36847e-05
3.84547e-05
1.33784e-05
1.6064e-05
1.48956e-05
3.91511e-05
1.33545e-05
1.76853e-05
2.01894e-05
4.8724e-05
1.31831e-05
2.439e-05
2.11309e-05
5.16919e-05
1.35988e-05
2.38565e-05
2.85426e-05
6.23875e-05
1.31717e-05
3.64419e-05
2.95121e-05
6.33589e-05
1.48681e-05
3.5634e-05
4.07984e-05
7.2877e-05
1.33239e-05
4.00801e-05
3.78461e-05
7.13646e-05
1.6906e-05
5.16342e-05
5.1243e-05
8.3782e-05
1.63257e-05
5.28377e-05
5.36609e-05
8.41134e-05
1.84169e-05
5.91036e-05
5.89206e-05
8.81319e-05
1.99325e-05
6.67409e-05
6.6062e-05
9.28837e-05
2.29664e-05
7.10629e-05
7.26361e-05
9.64617e-05
2.5546e-05
7.99498e-05
7.83958e-05
0.000100832
2.82495e-05
8.36303e-05
8.46167e-05
0.000104194
3.31374e-05
9.11895e-05
9.16526e-05
0.000108953
3.61948e-05
9.64129e-05
9.62602e-05
0.000111937
4.21205e-05
0.000102271
0.000102261
0.00011612
4.61772e-05
0.000108381
0.000107669
0.000119859
5.16479e-05
0.000114595
0.000113915
0.00012327
5.77756e-05
0.00011702
0.000119145
0.000127518
6.40625e-05
0.000124688
0.000123043
0.000129728
7.13501e-05
0.00012885
0.000129757
0.000135792
7.59968e-05
0.000134892
0.000133919
0.000137234
8.6501e-05
0.000140054
0.000138847
0.000141728
8.94492e-05
0.00014269
0.000143128
0.000143257
0.000104938
0.000153186
0.000153362
0.000151891
0.000110152
0.000151675
0.000151785
0.000149598
0.000100972
0.00014527
0.000145321
0.000143165
0.000108431
0.000157146
0.000157119
0.000152455
0.000142794
0.000176536
0.000176534
0.000167111
0.000168562
0.000188826
0.000188826
0.000176962
0.000178371
0.000190897
0.000190876
0.000176466
0.000158451
0.000175708
0.00017573
0.000166283
0.000124975
0.000156182
0.000156204
0.000150815
0.000101739
0.000145659
0.000145671
0.00014152
9.95865e-05
0.000152526
0.000152528
0.000147505
0.000136746
0.000171187
0.000171185
0.000160325
0.000172635
0.000186783
0.000186778
0.000171259
0.000197778
0.000196495
0.000196491
0.000177918
0.000210867
0.000201181
0.000201176
0.000181127
0.000216795
0.000203261
0.000203253
0.000182526
0.000219281
0.000204072
0.000204064
0.000183064
0.000219884
0.000204205
0.000204198
0.000183221
0.000219915
0.000204157
0.00020415
0.000183127
0.000220069
0.000204263
0.000204254
0.000183256
0.00022005
0.00020422
0.000204212
0.000183239
0.000220033
0.000204215
0.000204208
0.000183162
0.000220054
0.000204243
0.000204234
0.000183281
0.000220037
0.000204214
0.000204206
0.000183169
0.000220047
0.000204235
0.000204228
0.000183256
0.000220039
0.000204216
0.000204207
0.000183182
0.000220045
0.000204235
0.000204227
0.000183253
0.00022004
0.00020422
0.000204212
0.000183171
0.00022004
0.000204228
0.000204218
0.000183264
0.000220039
0.000204225
0.000204216
0.000183158
0.000220039
0.000204225
0.000204217
0.000183257
0.000220039
0.000204226
0.000204218
0.000183222
0.000220039
0.000204226
0.000204217
0.00018317
0.000220039
0.000204226
0.000204217
0.000183253
0.000220038
0.000204227
0.000204218
0.00018324
0.000220039
0.000204229
0.00020422
0.000183196
0.00022004
0.000204228
0.000204219
0.000183162
0.000220041
0.000204231
0.000204221
0.000183241
0.000220044
0.000204238
0.000204229
0.00018325
0.000220005
0.000204151
0.00020414
0.000183219
0.000221695
0.000205144
0.000205138
0.000186297
2.41384e-06
2.49817e-06
2.41832e-06
2.32303e-06
2.47349e-06
2.53895e-06
1.01657e-05
1.01637e-05
1.03444e-05
1.0159e-05
2.5104e-06
2.13202e-06
2.32907e-06
2.56585e-06
2.4568e-06
2.27715e-06
2.41039e-06
2.39178e-06
2.3491e-06
2.2872e-06
2.32218e-06
2.26355e-06
2.30483e-06
2.3137e-06
2.32584e-06
2.41201e-06
2.3062e-06
2.39741e-06
1.74552e-06
2.341e-06
1.74411e-06
2.31686e-06
2.31571e-06
2.34253e-06
2.34794e-06
2.34249e-06
2.26608e-06
2.37824e-06
2.37329e-06
2.31973e-06
2.25673e-06
2.31039e-06
2.24094e-06
2.28997e-06
2.28098e-06
2.30459e-06
2.39474e-06
2.3017e-06
2.38898e-06
1.74793e-06
2.33968e-06
1.75915e-06
2.31376e-06
2.3669e-06
2.3413e-06
2.90432e-06
2.33495e-06
2.25317e-06
2.352e-06
2.35027e-06
2.30528e-06
2.23839e-06
2.29622e-06
2.23872e-06
2.25578e-06
2.24921e-06
2.30246e-06
2.38712e-06
2.30782e-06
2.37773e-06
1.76445e-06
2.32801e-06
1.78728e-06
2.37255e-06
2.5068e-06
2.33287e-06
4.19761e-06
2.32253e-06
2.23299e-06
2.32777e-06
2.3241e-06
2.29622e-06
2.24092e-06
2.29653e-06
2.24136e-06
2.22762e-06
2.22113e-06
2.30898e-06
2.3742e-06
2.30489e-06
2.37112e-06
1.79738e-06
2.29593e-06
1.83805e-06
2.50419e-06
2.62488e-06
2.31782e-06
5.35104e-06
2.31257e-06
2.21086e-06
2.30242e-06
2.29837e-06
2.29582e-06
2.24175e-06
2.29517e-06
2.25509e-06
2.19804e-06
2.18215e-06
2.30391e-06
2.37129e-06
2.31345e-06
2.36814e-06
1.85368e-06
2.2845e-06
1.90147e-06
2.59863e-06
2.58392e-06
2.31109e-06
4.75112e-06
2.29654e-06
2.19094e-06
2.2772e-06
2.26698e-06
2.29414e-06
2.25881e-06
2.28726e-06
2.26682e-06
2.16122e-06
2.15646e-06
2.31267e-06
2.36557e-06
2.29803e-06
2.35464e-06
1.91945e-06
2.269e-06
1.98047e-06
2.53469e-06
2.46502e-06
2.28849e-06
3.86034e-06
2.27558e-06
2.16453e-06
2.24399e-06
2.22615e-06
2.2853e-06
2.27317e-06
2.27445e-06
2.29669e-06
2.1369e-06
2.13495e-06
2.29641e-06
2.35011e-06
2.30364e-06
2.3329e-06
2.00241e-06
2.24418e-06
2.05607e-06
2.42245e-06
2.3962e-06
2.27505e-06
3.37623e-06
2.27617e-06
2.13578e-06
2.2023e-06
2.17669e-06
2.27128e-06
2.30399e-06
2.25685e-06
2.29783e-06
2.11575e-06
2.10853e-06
2.30406e-06
2.32766e-06
2.28317e-06
2.30724e-06
2.06669e-06
2.21534e-06
2.09411e-06
2.36863e-06
2.3323e-06
2.27648e-06
2.95867e-06
2.26785e-06
2.1224e-06
2.15143e-06
2.11604e-06
2.25174e-06
2.28758e-06
2.23155e-06
2.25456e-06
2.08748e-06
2.06272e-06
2.27137e-06
2.30205e-06
2.23135e-06
2.27052e-06
2.10069e-06
2.18319e-06
2.11223e-06
2.29586e-06
2.17637e-06
2.26318e-06
2.36477e-06
2.23573e-06
2.09424e-06
2.09217e-06
2.03072e-06
2.22173e-06
2.23981e-06
2.19592e-06
2.19953e-06
2.0427e-06
1.9956e-06
2.22047e-06
2.25853e-06
2.19083e-06
2.2169e-06
2.11153e-06
2.15523e-06
2.11395e-06
2.15053e-06
2.0183e-06
2.22389e-06
1.85244e-06
2.18462e-06
2.03276e-06
2.01653e-06
1.9458e-06
2.18566e-06
2.18229e-06
2.14488e-06
2.13256e-06
1.98298e-06
1.92265e-06
2.19042e-06
2.20215e-06
2.17825e-06
2.15426e-06
2.11475e-06
2.11364e-06
2.10629e-06
1.9994e-06
1.85833e-06
2.16772e-06
1.53396e-06
2.12453e-06
1.96418e-06
1.92961e-06
1.87328e-06
2.12848e-06
2.12212e-06
2.07919e-06
2.09082e-06
1.90725e-06
1.84793e-06
2.17302e-06
2.13475e-06
2.154e-06
2.07811e-06
2.10147e-06
2.05877e-06
2.07562e-06
1.83917e-06
1.71411e-06
2.10511e-06
1.34563e-06
2.05281e-06
1.89478e-06
1.85557e-06
1.81863e-06
2.0631e-06
2.07908e-06
2.0068e-06
2.02728e-06
1.82946e-06
1.76314e-06
2.14997e-06
2.05944e-06
2.14202e-06
1.99876e-06
2.06331e-06
1.98318e-06
2.02315e-06
1.69406e-06
1.59011e-06
2.03548e-06
1.26332e-06
1.97826e-06
1.80651e-06
1.7986e-06
1.73857e-06
1.98634e-06
2.00521e-06
1.92552e-06
1.93342e-06
1.73986e-06
1.65812e-06
2.13333e-06
1.97774e-06
2.07234e-06
1.9139e-06
2.00877e-06
1.8978e-06
1.96161e-06
1.56973e-06
1.50653e-06
1.95827e-06
1.24052e-06
1.89944e-06
1.70532e-06
1.71242e-06
1.61799e-06
1.90703e-06
1.91439e-06
1.84691e-06
1.85655e-06
1.62735e-06
1.55683e-06
2.0386e-06
1.89481e-06
1.90091e-06
1.83534e-06
1.94598e-06
1.81144e-06
1.8964e-06
1.48617e-06
1.45504e-06
1.88023e-06
1.34238e-06
1.82729e-06
1.60365e-06
1.58204e-06
1.48096e-06
1.82156e-06
1.82402e-06
1.76415e-06
1.77885e-06
1.51884e-06
1.45325e-06
1.84988e-06
1.81671e-06
1.71125e-06
1.7433e-06
1.8834e-06
1.71903e-06
1.84917e-06
1.43366e-06
1.42515e-06
1.81053e-06
1.56343e-06
1.74857e-06
1.51426e-06
1.44934e-06
1.35864e-06
1.73496e-06
1.77854e-06
1.68621e-06
1.64472e-06
1.4524e-06
1.28638e-06
1.66978e-06
1.73238e-06
1.57867e-06
1.6816e-06
1.8371e-06
1.59557e-06
1.8346e-06
1.41099e-06
1.47059e-06
1.72875e-06
2.06967e-06
1.70393e-06
1.47379e-06
1.36191e-06
1.30618e-06
1.67619e-06
1.59559e-06
1.64984e-06
1.71934e-06
1.21922e-06
1.50621e-06
1.56493e-06
1.67562e-06
1.55533e-06
1.66267e-06
1.80887e-06
1.68655e-06
1.79737e-06
1.4609e-06
1.60158e-06
1.67508e-06
2.63782e-06
1.66506e-06
1.41341e-06
1.315e-06
1.4007e-06
1.64162e-06
1.70797e-06
1.6598e-06
1.63791e-06
1.54422e-06
1.34876e-06
1.56515e-06
1.6742e-06
1.52552e-06
1.66721e-06
1.82338e-06
1.61976e-06
1.76545e-06
1.57189e-06
1.84624e-06
1.68545e-06
3.01551e-06
1.64134e-06
1.46025e-06
1.44783e-06
1.96373e-06
1.68523e-06
1.70719e-06
1.91801e-06
1.80791e-06
1.37452e-06
1.86043e-06
1.55458e-06
1.66904e-06
1.86445e-06
1.92624e-06
1.81769e-06
1.76924e-06
1.93964e-06
1.78356e-06
2.21834e-06
1.70105e-06
3.20952e-06
1.79028e-06
1.97068e-06
2.01578e-06
1.90416e-06
1.89401e-06
1.81241e-06
1.96084e-06
2.09061e-06
1.838e-06
2.45206e-06
1.84275e-06
1.88165e-06
1.86687e-06
2.00437e-06
1.99121e-06
1.9836e-06
2.18595e-06
2.28109e-06
2.29762e-06
1.8532e-06
2.9335e-06
1.99451e-06
2.53915e-06
2.62156e-06
3.52975e-06
2.3871e-06
2.16644e-06
2.48518e-06
2.43801e-06
2.48475e-06
3.91394e-06
2.2489e-06
2.36604e-06
2.32666e-06
2.59406e-06
2.1826e-06
2.51413e-06
2.91076e-06
3.14261e-06
3.96039e-06
2.03405e-06
3.12691e-06
2.61962e-06
3.99432e-06
3.21394e-06
6.64782e-06
2.34273e-06
2.76684e-06
3.37341e-06
3.05344e-06
4.13883e-06
4.87714e-06
2.24276e-06
2.47818e-06
3.12488e-06
3.0032e-06
3.17011e-06
2.95147e-06
3.02028e-06
3.64391e-06
4.64785e-06
2.80824e-06
3.38159e-06
2.84802e-06
4.67002e-06
8.0782e-06
8.75408e-06
3.97221e-06
2.98345e-06
4.21886e-06
5.24146e-06
4.65195e-06
1.25835e-05
3.57217e-06
3.41286e-06
4.39017e-06
4.26866e-06
3.03322e-06
5.08745e-06
5.16949e-06
6.23697e-06
1.02681e-05
2.91067e-06
5.01582e-06
4.97312e-06
1.1075e-05
8.39978e-06
1.26682e-05
3.98577e-06
5.37312e-06
5.79078e-06
4.01216e-06
1.30318e-05
5.29673e-06
4.22416e-06
4.51088e-06
5.37733e-06
5.45622e-06
5.27789e-06
4.01018e-06
4.6491e-06
1.03417e-05
1.18514e-05
5.27456e-06
5.79385e-06
4.59197e-06
8.77928e-06
1.59399e-05
1.6968e-05
6.81815e-06
4.34431e-06
6.95905e-06
1.05621e-05
4.98314e-06
4.13141e-05
6.50185e-06
5.53205e-06
6.75345e-06
7.00645e-06
5.34989e-06
1.0197e-05
8.56163e-06
1.29377e-05
1.56559e-05
4.67841e-06
6.79531e-06
8.48922e-06
2.55475e-05
1.58434e-05
2.72238e-05
6.58174e-06
1.05955e-05
1.01697e-05
9.01431e-06
4.21862e-05
1.88667e-05
6.4208e-06
7.98631e-06
1.00488e-05
9.06422e-06
8.65546e-06
8.68259e-06
7.77266e-06
1.81108e-05
2.46537e-05
8.77218e-06
9.41275e-06
7.89043e-06
1.85606e-05
3.07135e-05
2.99014e-05
1.14349e-05
8.98484e-06
1.09645e-05
1.02344e-05
1.84019e-05
2.94352e-05
1.12998e-05
8.86994e-06
1.09969e-05
1.20876e-05
7.54166e-06
1.07043e-05
1.25234e-05
2.42153e-05
2.90624e-05
7.64717e-06
1.15614e-05
1.28431e-05
3.39125e-05
2.84978e-05
4.08578e-05
1.09154e-05
1.15015e-05
1.55319e-05
1.61632e-05
2.89561e-05
4.25666e-05
1.09481e-05
1.39086e-05
1.42009e-05
1.50384e-05
1.4601e-05
1.53422e-05
1.56519e-05
3.32991e-05
4.0789e-05
1.46785e-05
1.54148e-05
1.50961e-05
4.02756e-05
4.39213e-05
4.42019e-05
1.55788e-05
1.66262e-05
1.85105e-05
1.64411e-05
4.43229e-05
4.23034e-05
1.50571e-05
1.45623e-05
1.92328e-05
1.78776e-05
1.50392e-05
1.69487e-05
1.82417e-05
3.99038e-05
4.26455e-05
1.44935e-05
1.76773e-05
1.86633e-05
4.36966e-05
4.55673e-05
5.05834e-05
1.89401e-05
1.73183e-05
2.02369e-05
2.33935e-05
4.40332e-05
5.17694e-05
1.96548e-05
2.02519e-05
1.93714e-05
2.14718e-05
2.04483e-05
2.31135e-05
2.05032e-05
4.7535e-05
5.36007e-05
2.05339e-05
2.13275e-05
2.02558e-05
5.16404e-05
5.19002e-05
5.95356e-05
2.29965e-05
2.48547e-05
2.7878e-05
2.41717e-05
5.30688e-05
5.61856e-05
2.17616e-05
2.13425e-05
2.79518e-05
2.74306e-05
2.06918e-05
2.36844e-05
2.85396e-05
5.38714e-05
5.66596e-05
2.07551e-05
2.73019e-05
2.88149e-05
6.10375e-05
6.00423e-05
6.21752e-05
2.74035e-05
2.39423e-05
2.76206e-05
3.37808e-05
5.64772e-05
6.87426e-05
2.77416e-05
2.85694e-05
2.76038e-05
2.78864e-05
2.92325e-05
3.39364e-05
2.78122e-05
5.81225e-05
6.32233e-05
2.93475e-05
2.78863e-05
2.77777e-05
6.21908e-05
6.42461e-05
7.20952e-05
3.18606e-05
3.66238e-05
3.94116e-05
3.73069e-05
7.11451e-05
6.87837e-05
3.13046e-05
2.95606e-05
3.90356e-05
3.97459e-05
2.90055e-05
3.67286e-05
3.95176e-05
6.50825e-05
7.25712e-05
2.88369e-05
3.98315e-05
3.93924e-05
7.23994e-05
7.1949e-05
7.04779e-05
3.90965e-05
3.62223e-05
3.69348e-05
3.49733e-05
6.798e-05
7.02127e-05
3.89093e-05
4.07431e-05
3.69824e-05
3.86e-05
4.03465e-05
3.52472e-05
3.82072e-05
7.29837e-05
7.07721e-05
4.02396e-05
3.85413e-05
3.81038e-05
7.08502e-05
7.22076e-05
8.26666e-05
3.89888e-05
3.97578e-05
4.93629e-05
5.07206e-05
7.38156e-05
8.29807e-05
3.87535e-05
3.79666e-05
4.92779e-05
4.82454e-05
3.77932e-05
5.07075e-05
4.8461e-05
7.12722e-05
8.19179e-05
3.78398e-05
4.8098e-05
4.8454e-05
8.22474e-05
8.33623e-05
8.29664e-05
5.11319e-05
5.14375e-05
5.23781e-05
5.21636e-05
8.33769e-05
8.27414e-05
5.15726e-05
5.1339e-05
5.19441e-05
5.36437e-05
5.13143e-05
5.18412e-05
5.32106e-05
8.37416e-05
8.42565e-05
5.11992e-05
5.39692e-05
5.34355e-05
8.40225e-05
8.33295e-05
8.73684e-05
5.26318e-05
5.35152e-05
5.72728e-05
5.6682e-05
8.3259e-05
8.72668e-05
5.18902e-05
5.3491e-05
5.81835e-05
5.7059e-05
5.36053e-05
5.7362e-05
5.7223e-05
8.42663e-05
8.64954e-05
5.3584e-05
5.64101e-05
5.69141e-05
8.67725e-05
8.87908e-05
9.15608e-05
5.97126e-05
5.80324e-05
6.48938e-05
6.58716e-05
8.83832e-05
9.21713e-05
6.06781e-05
5.94858e-05
6.34286e-05
6.45304e-05
5.88133e-05
6.54134e-05
6.46017e-05
8.79735e-05
9.22957e-05
5.89224e-05
6.48885e-05
6.48896e-05
9.20249e-05
9.21643e-05
9.60539e-05
6.55923e-05
6.74316e-05
7.01531e-05
6.92312e-05
9.30661e-05
9.51521e-05
6.42324e-05
6.56005e-05
7.12301e-05
7.15837e-05
6.63244e-05
6.91621e-05
7.04177e-05
9.30146e-05
9.59048e-05
6.62271e-05
7.11088e-05
7.02924e-05
9.56348e-05
9.73848e-05
9.99395e-05
7.29301e-05
7.13956e-05
7.77392e-05
7.85452e-05
9.5989e-05
0.00010076
7.38236e-05
7.34747e-05
7.71635e-05
7.61332e-05
7.19555e-05
7.84926e-05
7.69269e-05
9.68893e-05
9.96238e-05
7.21599e-05
7.62341e-05
7.72727e-05
9.9987e-05
0.00010031
0.000103238
7.78573e-05
7.91733e-05
8.21947e-05
8.17193e-05
0.00010144
0.00010298
7.75602e-05
7.77128e-05
8.20264e-05
8.42147e-05
7.85258e-05
8.22115e-05
8.2822e-05
0.000100425
0.000104236
7.85943e-05
8.41245e-05
8.24894e-05
0.000103384
0.000104588
0.000108205
8.51513e-05
8.41958e-05
8.99539e-05
9.05176e-05
0.000103863
0.000108284
8.45633e-05
8.53284e-05
9.02181e-05
8.85525e-05
8.41478e-05
8.96055e-05
8.94469e-05
0.000104879
0.000107327
8.40322e-05
8.86396e-05
8.98413e-05
0.000108061
0.000108605
0.000111275
9.02709e-05
9.11075e-05
9.49491e-05
9.38942e-05
0.000108864
0.000111058
9.10357e-05
9.09096e-05
9.43131e-05
9.62857e-05
9.14843e-05
9.47894e-05
9.51672e-05
0.000108488
0.000112123
9.17507e-05
9.65475e-05
9.51766e-05
0.000111416
0.000112447
0.000115941
9.74765e-05
9.63392e-05
0.000101584
0.000102501
0.000112069
0.000115857
9.62832e-05
9.66701e-05
0.000102124
0.000100136
9.59798e-05
0.000101411
0.000100734
0.000112366
0.000114352
9.60962e-05
9.95227e-05
0.000100807
0.000115152
0.000116353
0.000118845
0.000102106
0.00010269
0.000106606
0.000104512
0.000116186
0.000118057
0.000103307
0.000102424
0.000106288
0.000106936
0.000102559
0.000106012
0.000107116
0.000115642
0.000119569
0.000102457
0.000107312
0.00010664
0.000119296
0.000119751
0.00012266
0.0001086
0.000107035
0.000112101
0.000114722
0.000119325
0.000124405
0.000107482
0.000107495
0.000111719
0.000111929
0.000108487
0.000114289
0.000111934
0.000119856
0.000122482
0.000107995
0.000111677
0.000111858
0.000122572
0.000123097
0.000126286
0.000112739
0.000115506
0.000116865
0.000116527
0.000124708
0.000125041
0.000113249
0.000114142
0.000118357
0.000118581
0.000112908
0.000115336
0.000117622
0.000123688
0.000127246
0.000113087
0.000118439
0.000118136
0.00012673
0.000127244
0.000130428
0.000118818
0.000118028
0.000123076
0.000122904
0.00012573
0.000130741
0.000119931
0.000119301
0.000122669
0.000121759
0.000119299
0.000123049
0.00012143
0.000127532
0.000129148
0.000119684
0.000121446
0.000121232
0.000129278
0.000130915
0.000133359
0.000124319
0.000124047
0.0001281
0.000127358
0.000131432
0.000133098
0.00012363
0.000123348
0.000127206
0.000128449
0.000122658
0.00012821
0.000129393
0.000129985
0.000134303
0.000122393
0.000128675
0.000129307
0.000134904
0.000133904
0.000136904
0.000128885
0.000128534
0.000132091
0.000133337
0.00013362
0.000137572
0.000128053
0.000129412
0.000132021
0.000132416
0.000130643
0.000132575
0.000132089
0.000134924
0.000136955
0.000130633
0.000132349
0.000132028
0.000136871
0.000137869
0.000141189
0.000133974
0.000135295
0.000138399
0.000138507
0.000138618
0.000141282
0.000134342
0.000134157
0.000139411
0.000138399
0.000133718
0.000139954
0.000139371
0.000137648
0.000140746
0.000133573
0.000138471
0.000139313
0.000141452
0.000141303
0.000142836
0.000138609
0.000138324
0.000140675
0.000139933
0.00014127
0.000142241
0.0001395
0.000138599
0.00014104
0.000140838
0.000139736
0.000140198
0.000140145
0.000140943
0.00014281
0.000139769
0.000140636
0.000140041
0.000142165
0.000144267
0.000151688
0.000143354
0.000142722
0.000152316
0.000152103
0.000143648
0.000151391
0.000143758
0.000143579
0.000152578
0.000152347
0.000142622
0.000151855
0.000152124
0.000144212
0.000151558
0.000142345
0.000152072
0.000151905
0.000151203
0.000152157
0.000149669
0.000153541
0.000153417
0.000153892
0.000153847
0.000151926
0.000149721
0.000153708
0.000153453
0.000153891
0.000153574
0.000153614
0.00015363
0.00015435
0.000152035
0.000149551
0.000153515
0.000153798
0.00015442
0.000150305
0.000148952
0.000143527
0.000151873
0.000151899
0.000146777
0.000146783
0.000149021
0.000143592
0.000151697
0.000151369
0.000146401
0.000146168
0.000152498
0.000146402
0.000146788
0.000148822
0.000143294
0.000152717
0.000146461
0.000147019
0.000143741
0.000143159
0.000150885
0.000145673
0.000145683
0.000152784
0.000152767
0.00014319
0.000150876
0.000145271
0.000145066
0.000152474
0.000152662
0.000145558
0.000152384
0.000151572
0.000142923
0.000150855
0.000145781
0.000152353
0.000151594
0.000150248
0.000152986
0.00016479
0.000157381
0.000157384
0.000171735
0.00017178
0.000152983
0.000164845
0.000157217
0.000157395
0.000171756
0.000171934
0.000156511
0.000171809
0.000171535
0.00015299
0.000164906
0.000156498
0.000171798
0.000171485
0.000164651
0.000167189
0.000176163
0.000176412
0.000176472
0.000186731
0.000186804
0.000167258
0.000176269
0.000176446
0.00017662
0.000186756
0.000186896
0.000176346
0.000186913
0.00018689
0.000167317
0.000176299
0.0001763
0.000186921
0.000186872
0.000176289
0.000176812
0.000177049
0.000188626
0.000188708
0.000191947
0.000192013
0.000176917
0.000177108
0.000188655
0.000188787
0.000191968
0.00019204
0.000188834
0.000192147
0.00019223
0.00017694
0.000177074
0.000188819
0.00019213
0.000192235
0.000177294
0.000176232
0.000167676
0.000190774
0.00019077
0.000180032
0.000179963
0.000176276
0.000167643
0.00019075
0.000190701
0.000179961
0.000179878
0.000191078
0.000180015
0.000180138
0.000176233
0.000167618
0.000191134
0.000180028
0.0001802
0.000167771
0.00016621
0.000152464
0.000175749
0.000175671
0.000160917
0.000160848
0.000166177
0.000152426
0.000175675
0.000175596
0.000160855
0.000160811
0.000175802
0.000160853
0.00016088
0.000166153
0.000152429
0.000175858
0.000160878
0.000160914
0.000152458
0.000150825
0.00014221
0.000156239
0.000156178
0.000147025
0.00014699
0.000150793
0.000142197
0.000156184
0.000156153
0.000146989
0.000146992
0.000156192
0.000146987
0.000146981
0.000150795
0.000142207
0.00015622
0.000147001
0.000146994
0.000142193
0.000141537
0.000145427
0.000145693
0.000145661
0.000147427
0.000147433
0.000141525
0.00014543
0.000145657
0.000145666
0.000147425
0.000147457
0.00014565
0.000147436
0.000147433
0.000141535
0.000145441
0.000145661
0.000147439
0.000147425
0.00014543
0.000147501
0.000158275
0.000152519
0.000152522
0.000166656
0.000166658
0.000147506
0.00015828
0.000152516
0.000152539
0.000166657
0.000166658
0.000152524
0.000166668
0.000166662
0.000147514
0.000158279
0.000152521
0.000166667
0.000166665
0.00015828
0.000160323
0.000169794
0.000171175
0.000171177
0.000183362
0.000183363
0.000160328
0.000169799
0.000171179
0.000171174
0.000183371
0.000183354
0.000171181
0.00018338
0.000183367
0.000160325
0.000169791
0.000171185
0.000183375
0.000183374
0.000169795
0.000171259
0.000177185
0.000186765
0.000186766
0.000194607
0.000194607
0.000171264
0.000177191
0.000186776
0.000186756
0.000194621
0.000194596
0.00018677
0.00019463
0.000194613
0.000171255
0.000177181
0.000186779
0.000194625
0.000194626
0.000177187
0.000177916
0.00018084
0.000196472
0.000196471
0.000200311
0.000200308
0.000177922
0.000180846
0.000196486
0.00019646
0.000200326
0.000200299
0.000196478
0.000200338
0.000200319
0.000177912
0.000180837
0.000196492
0.000200333
0.000200335
0.000180844
0.000181123
0.000182458
0.000201153
0.00020115
0.000202859
0.000202856
0.000181129
0.000182465
0.000201169
0.000201141
0.000202875
0.000202847
0.000201161
0.000202889
0.000202867
0.00018112
0.000182455
0.000201178
0.000202883
0.000202884
0.000182461
0.000182522
0.000183125
0.000203229
0.000203227
0.000203921
0.000203919
0.00018253
0.000183134
0.000203246
0.000203217
0.000203938
0.000203908
0.000203238
0.000203953
0.000203929
0.000182519
0.000183122
0.000203255
0.000203945
0.000203947
0.000183129
0.00018306
0.00018333
0.00020404
0.000204038
0.00020417
0.000204168
0.000183068
0.000183339
0.000204057
0.000204027
0.000204188
0.000204157
0.000204048
0.000204202
0.000204179
0.000183056
0.000183327
0.000204066
0.000204195
0.000204197
0.000183334
0.000183217
0.000183269
0.000204173
0.000204171
0.000204132
0.00020413
0.000183225
0.000183275
0.00020419
0.00020416
0.00020415
0.00020412
0.000204182
0.000204164
0.000204142
0.000183213
0.000183266
0.0002042
0.000204157
0.00020416
0.000183275
0.000183121
0.000183355
0.000204125
0.000204123
0.000204211
0.00020421
0.000183127
0.000183366
0.000204142
0.000204113
0.000204229
0.000204199
0.000204135
0.000204245
0.00020422
0.000183118
0.000183353
0.000204152
0.000204236
0.000204237
0.000183359
0.000183253
0.000183378
0.00020423
0.000204229
0.000204216
0.000204213
0.000183263
0.000183384
0.000204247
0.000204217
0.000204234
0.000204202
0.000204238
0.000204248
0.000204224
0.00018325
0.000183372
0.000204255
0.000204239
0.000204241
0.00018338
0.000183237
0.000183268
0.000204189
0.000204186
0.000204168
0.000204166
0.000183243
0.000183277
0.000204206
0.000204175
0.000204186
0.000204155
0.000204196
0.0002042
0.000204177
0.000183231
0.000183265
0.000204214
0.000204193
0.000204195
0.000183273
0.000183156
0.000183395
0.000204182
0.000204181
0.000204214
0.000204212
0.000183166
0.000183406
0.000204199
0.00020417
0.000204231
0.000204201
0.000204191
0.000204246
0.000204222
0.000183155
0.000183393
0.00020421
0.000204238
0.00020424
0.000183401
0.000183277
0.000183308
0.000204211
0.000204208
0.000204183
0.000204181
0.000183285
0.000183312
0.000204228
0.000204197
0.000204201
0.00020417
0.000204219
0.000204215
0.000204191
0.000183273
0.0001833
0.000204236
0.000204207
0.000204209
0.000183306
0.000183169
0.000183354
0.000204182
0.00020418
0.000204198
0.000204197
0.000183174
0.000183366
0.0002042
0.000204169
0.000204216
0.000204186
0.00020419
0.000204231
0.000204207
0.000183162
0.000183355
0.000204208
0.000204224
0.000204226
0.000183362
0.000183249
0.000183326
0.000204203
0.000204201
0.000204187
0.000204185
0.00018326
0.00018333
0.00020422
0.00020419
0.000204204
0.000204174
0.000204211
0.00020422
0.000204195
0.000183249
0.000183318
0.000204229
0.000204211
0.000204212
0.000183326
0.000183182
0.00018335
0.000204182
0.000204181
0.000204198
0.000204197
0.000183186
0.000183365
0.0002042
0.000204169
0.000204216
0.000204187
0.000204191
0.000204232
0.000204207
0.000183174
0.000183352
0.000204208
0.000204224
0.000204226
0.000183358
0.000183246
0.000183314
0.000204202
0.0002042
0.000204186
0.000204185
0.00018326
0.000183314
0.00020422
0.00020419
0.000204203
0.000204173
0.00020421
0.000204219
0.000204195
0.000183247
0.000183305
0.000204229
0.000204212
0.000204213
0.000183314
0.00018317
0.000183366
0.000204186
0.000204185
0.000204194
0.000204195
0.000183171
0.000183386
0.000204203
0.000204173
0.000204213
0.000204184
0.000204195
0.000204229
0.000204204
0.000183162
0.000183369
0.000204213
0.000204218
0.00020422
0.000183373
0.000183258
0.000183289
0.000204194
0.000204194
0.00020419
0.000204189
0.000183273
0.00018329
0.000204213
0.000204184
0.000204207
0.000204177
0.000204204
0.000204223
0.000204199
0.000183258
0.00018328
0.00020422
0.000204215
0.000204217
0.00018329
0.000183154
0.000183389
0.000204191
0.000204191
0.000204191
0.00020419
0.000183163
0.000183395
0.000204208
0.000204178
0.000204209
0.000204179
0.0002042
0.000204225
0.0002042
0.00018315
0.000183384
0.000204217
0.000204216
0.000204218
0.000183392
0.00018326
0.000183298
0.000204192
0.00020419
0.00020419
0.00020419
0.000183254
0.000183329
0.00020421
0.000204179
0.000204207
0.000204178
0.000204201
0.000204224
0.000204199
0.000183246
0.000183315
0.000204218
0.000204216
0.000204217
0.000183316
0.000183204
0.000183318
0.000204192
0.000204192
0.00020419
0.000204189
0.000183233
0.000183311
0.000204209
0.00020418
0.000204208
0.000204178
0.000204201
0.000204223
0.000204199
0.00018322
0.000183299
0.000204219
0.000204215
0.000204216
0.000183311
0.000183175
0.000183383
0.000204192
0.000204191
0.00020419
0.000204189
0.000183171
0.000183392
0.000204209
0.00020418
0.000204207
0.000204178
0.000204201
0.000204224
0.0002042
0.00018316
0.000183377
0.000204218
0.000204215
0.000204217
0.000183388
0.000183255
0.000183325
0.000204191
0.000204191
0.000204189
0.000204189
0.000183253
0.000183346
0.000204209
0.00020418
0.000204206
0.000204178
0.000204202
0.000204223
0.000204199
0.000183236
0.000183344
0.000204219
0.000204215
0.000204217
0.000183339
0.00018323
0.000183284
0.000204193
0.000204192
0.000204187
0.000204187
0.000183246
0.000183297
0.00020421
0.000204181
0.000204205
0.000204176
0.000204203
0.000204223
0.0002042
0.000183242
0.000183288
0.00020422
0.000204214
0.000204217
0.000183297
0.000183161
0.000183342
0.000204194
0.000204193
0.000204188
0.000204186
0.000183186
0.000183321
0.000204211
0.000204182
0.000204205
0.000204174
0.000204206
0.00020422
0.000204196
0.000183189
0.000183299
0.000204223
0.000204211
0.000204213
0.000183301
0.000183195
0.000183381
0.000204194
0.000204193
0.000204189
0.000204187
0.00018318
0.000183372
0.000204212
0.000204182
0.000204207
0.000204176
0.000204204
0.000204223
0.0002042
0.000183162
0.000183357
0.00020422
0.000204214
0.000204217
0.000183384
0.000183259
0.000183318
0.000204198
0.000204196
0.000204191
0.000204189
0.000183226
0.000183381
0.000204216
0.000204185
0.000204208
0.000204178
0.000204207
0.000204225
0.0002042
0.000183212
0.000183368
0.000204224
0.000204215
0.000204217
0.000183355
0.000183227
0.000183315
0.000204205
0.000204202
0.00020424
0.00020424
0.000183261
0.000183341
0.000204223
0.000204191
0.000204258
0.00020423
0.000204214
0.000204274
0.00020425
0.00018325
0.000183329
0.000204231
0.000204266
0.000204268
0.000183322
0.000183189
0.00018456
0.000204115
0.000204115
0.000206673
0.000206675
0.000183241
0.00018456
0.000204133
0.000204103
0.000206692
0.000206668
0.000204124
0.000206701
0.000206683
0.000183231
0.000184553
0.000204143
0.000206695
0.000206701
0.000184562
0.000186291
0.000205118
0.00020512
0.000186296
0.000205135
0.000205114
0.000221699
0.0002217
0.000221708
0.000205127
0.000186292
0.000205143
3.20551e-05
3.59539e-06
1.9998e-05
1.99295e-05
6.34698e-07
2.50381e-06
2.11987e-06
1.05387e-05
6.64414e-07
2.53697e-06
1.05925e-05
1.37036e-06
2.28688e-06
2.01029e-06
1.69167e-06
1.11805e-06
1.34709e-05
1.07077e-06
1.52634e-05
1.09774e-05
1.31971e-05
1.11749e-06
1.34714e-05
1.02391e-06
1.52517e-05
9.74347e-06
9.90699e-06
9.76196e-06
9.53587e-06
9.53457e-06
9.7047e-06
9.55428e-06
6.68751e-07
5.82619e-07
4.14267e-06
2.35845e-06
6.69797e-07
7.12458e-07
4.09821e-06
1.09326e-05
1.32084e-05
6.73977e-07
4.41934e-06
5.69326e-07
2.30289e-06
6.71829e-07
4.40869e-06
7.24233e-07
1.4695e-06
1.50337e-06
2.27089e-06
1.69559e-06
1.70249e-06
1.29203e-06
1.84652e-05
1.21821e-06
2.09899e-05
1.72075e-05
1.9365e-05
1.31086e-06
1.84623e-05
1.19778e-06
2.10353e-05
9.57803e-06
9.7597e-06
9.59598e-06
9.72997e-06
9.72873e-06
9.95218e-06
9.73759e-06