/*--------------------------------*- C++ -*----------------------------------*\
| =========                 |                                                 |
| \\      /  F ield         | OpenFOAM: The Open Source CFD Toolbox           |
|  \\    /   O peration     | Version:  v1906                                 |
|   \\  /    A nd           | Web:      www.OpenFOAM.com                      |
|    \\/     M anipulation  |                                                 |
\*---------------------------------------------------------------------------*/
FoamFile
{
    version     2.0;
    format      ascii;
    class       volScalarField;
    location    "262.5";
    object      p;
}
// * * * * * * * * * * * * * * * * * * * * * * * * * * * * * * * * * * * * * //

dimensions      [0 2 -2 0 0 0 0];


internalField   nonuniform List<scalar> 
171728
(
0.00353068
0.00352965
0.0035296
0.00352998
0.0034951
0.00349357
0.00349362
0.00349646
0.00345709
0.0034551
0.00345519
0.0034574
0.00341288
0.00341121
0.0034112
0.00341346
0.0033645
0.00336298
0.00336312
0.00336537
0.0033158
0.00331436
0.00331439
0.00331677
0.00326783
0.00326656
0.00326661
0.00326893
0.00322048
0.00321932
0.00321935
0.00322171
0.00317411
0.00317307
0.00317301
0.00317547
0.00312883
0.0031279
0.00312787
0.00313032
0.00308439
0.00308353
0.00308357
0.00308598
0.00304073
0.00303997
0.00304005
0.0030424
0.00299761
0.00299701
0.00299692
0.00299938
0.00295488
0.00295441
0.0029543
0.00295678
0.0029125
0.0029121
0.00291211
0.00291445
0.00287043
0.00286989
0.00287005
0.00287245
0.00282869
0.00282843
0.00282841
0.00283069
0.00278733
0.00278714
0.00278701
0.00278924
0.00274632
0.002746
0.00274587
0.00274831
0.00270567
0.00270554
0.00270522
0.00270763
0.00266531
0.0026651
0.00266518
0.00266708
0.00262531
0.00262513
0.0026255
0.00262693
0.00258552
0.00258547
0.00258508
0.00258729
0.00254611
0.00254614
0.0025462
0.00254777
0.00250684
0.00250682
0.00250668
0.00250871
0.00246797
0.00246847
0.00246784
0.00246999
0.00242903
0.00242885
0.00242912
0.00243091
0.00239054
0.00239074
0.00239065
0.00239235
0.00235225
0.00235253
0.00235245
0.00235493
0.00231395
0.0023141
0.00231419
0.00231568
0.00227604
0.00227634
0.00227634
0.00227879
0.00223828
0.00223844
0.00223851
0.00224043
0.00220057
0.00220109
0.00220087
0.00220295
0.00216322
0.0021633
0.00216355
0.0021654
0.00212561
0.00212601
0.00212583
0.00212791
0.00208873
0.00208907
0.00208911
0.00209105
0.00205149
0.00205169
0.00205172
0.00205366
0.00201449
0.00201478
0.00201472
0.00201672
0.00197789
0.00197805
0.00197809
0.00198003
0.00194124
0.00194138
0.00194138
0.00194339
0.00190488
0.00190496
0.00190492
0.00190691
0.00186843
0.00186849
0.00186853
0.00187056
0.00183245
0.0018324
0.00183238
0.00183441
0.00179629
0.00179627
0.00179628
0.0017983
0.0017605
0.00176037
0.00176037
0.00176242
0.00172471
0.00172463
0.00172463
0.00172668
0.00168918
0.001689
0.00168901
0.00169105
0.00165374
0.00165346
0.00165354
0.0016556
0.00161846
0.00161833
0.00161819
0.00162023
0.00158335
0.00158305
0.00158316
0.00158517
0.00154845
0.00154823
0.00154815
0.00155012
0.00151386
0.00151344
0.00151347
0.00151545
0.00147912
0.0014789
0.00147893
0.00148086
0.00144518
0.00144485
0.00144481
0.00144674
0.00141045
0.00141005
0.00141004
0.001412
0.00137574
0.00137575
0.00137574
0.00137769
0.00134249
0.00134265
0.00134265
0.00134458
0.00131078
0.00130991
0.00130991
0.0013116
0.00127721
0.0012764
0.0012764
0.00127812
0.00124083
0.00124044
0.00124044
0.0012424
0.00120249
0.00120259
0.00120259
0.00120486
0.00116322
0.00116392
0.00116392
0.0011664
0.00112593
0.00112663
0.00112663
0.001129
0.00109296
0.00109328
0.00109328
0.00109524
0.00106381
0.00106305
0.00106305
0.00106445
0.00103466
0.00103385
0.00103385
0.00103516
0.00100451
0.00100398
0.00100398
0.0010055
0.000972614
0.000972336
0.000972336
0.000974077
0.000938837
0.0009387
0.0009387
0.000940609
0.00090374
0.000903667
0.000903668
0.00090567
0.000867933
0.000867895
0.000867896
0.000869946
0.000831812
0.000831788
0.000831788
0.00083386
0.000795587
0.000795559
0.000795559
0.000797636
0.000759327
0.0007593
0.0007593
0.000761379
0.000723048
0.000723021
0.00072302
0.0007251
0.000686775
0.000686748
0.000686748
0.000688827
0.000650495
0.000650467
0.000650467
0.000652547
0.000614219
0.000614192
0.000614192
0.00061627
0.000577943
0.000577915
0.000577915
0.000579995
0.000541667
0.000541638
0.000541638
0.000543717
0.000505391
0.000505365
0.000505365
0.000507444
0.000469116
0.000469089
0.000469089
0.000471167
0.00043284
0.000432811
0.000432811
0.000434891
0.000396563
0.000396536
0.000396536
0.000398615
0.000360286
0.000360258
0.000360258
0.000362336
0.000324008
0.00032398
0.00032398
0.000326059
0.00028773
0.000287703
0.000287703
0.000289781
0.000251452
0.000251425
0.000251425
0.0002535
0.000215174
0.000215147
0.000215146
0.000217221
0.000178896
0.000178871
0.000178871
0.000180942
0.000142617
0.000142593
0.000142593
0.000144656
0.000106333
0.000106311
0.000106311
0.000108357
7.00526e-05
7.00267e-05
7.00255e-05
7.20374e-05
3.45408e-05
3.39698e-05
3.39668e-05
3.58269e-05
6.06021e-06
6.90504e-06
6.90455e-06
5.18504e-06
0.00353515
0.00353272
0.00353273
0.00353517
0.00353273
0.00353274
0.0035391
0.00353912
0.00353908
0.0035391
0.00353274
0.0035326
0.00353516
0.0035328
0.0035326
0.00353491
0.00353039
0.00350123
0.00352962
0.00352964
0.00350314
0.00350309
0.0035304
0.00350125
0.00352961
0.00352961
0.00350316
0.0035031
0.0035295
0.00350312
0.00350308
0.00353038
0.00350124
0.00352947
0.0035031
0.00350308
0.0035012
0.00349648
0.00346284
0.0034936
0.0034936
0.00346507
0.00346507
0.00349649
0.00346285
0.00349358
0.0034936
0.00346505
0.00346509
0.00349355
0.0034651
0.00346509
0.0034965
0.00346289
0.00349359
0.00346513
0.00346507
0.00346287
0.00345737
0.00341963
0.0034551
0.00345512
0.00342272
0.00342273
0.00345739
0.00341963
0.00345512
0.00345507
0.00342277
0.00342278
0.00345511
0.00342274
0.00342277
0.00345743
0.00341965
0.00345512
0.0034228
0.00342274
0.00341967
0.00341343
0.00337186
0.00341121
0.00341121
0.00337517
0.00337516
0.00341344
0.00337185
0.00341122
0.00341121
0.00337518
0.00337515
0.00341116
0.00337515
0.00337513
0.00341345
0.00337186
0.0034112
0.00337525
0.00337513
0.00337186
0.00336537
0.00332316
0.003363
0.00336297
0.00332644
0.00332641
0.00336536
0.00332318
0.00336301
0.003363
0.00332644
0.00332639
0.00336306
0.00332643
0.00332641
0.00336539
0.00332318
0.00336304
0.00332662
0.00332642
0.00332317
0.00331675
0.00327523
0.00331435
0.00331435
0.00327846
0.00327845
0.00331676
0.00327523
0.00331436
0.00331438
0.00327845
0.00327843
0.00331441
0.00327845
0.00327846
0.00331678
0.00327522
0.00331438
0.0032786
0.00327845
0.00327525
0.00326892
0.00322791
0.00326654
0.00326656
0.00323106
0.00323106
0.00326892
0.00322792
0.00326653
0.00326653
0.00323105
0.00323105
0.00326657
0.00323106
0.00323108
0.00326891
0.00322787
0.00326656
0.0032311
0.00323105
0.00322791
0.00322171
0.00318151
0.00321932
0.00321934
0.00318451
0.00318452
0.00322172
0.00318151
0.0032193
0.00321928
0.0031845
0.00318454
0.00321931
0.00318451
0.00318452
0.00322168
0.00318154
0.00321931
0.00318449
0.00318451
0.00318151
0.00317547
0.00313621
0.00317305
0.00317306
0.00313911
0.00313909
0.00317547
0.0031362
0.00317305
0.00317306
0.00313909
0.0031391
0.00317307
0.0031391
0.0031391
0.00317548
0.0031362
0.00317306
0.00313912
0.00313909
0.0031362
0.0031303
0.00309177
0.00312788
0.00312789
0.00309456
0.00309458
0.00313031
0.00309176
0.00312789
0.0031279
0.00309455
0.00309458
0.00312791
0.00309459
0.00309458
0.00313029
0.00309176
0.00312791
0.00309455
0.00309458
0.00309177
0.00308599
0.00304811
0.00308355
0.00308355
0.0030508
0.0030508
0.00308596
0.00304805
0.00308356
0.00308355
0.00305079
0.00305087
0.00308357
0.00305082
0.00305087
0.00308596
0.0030481
0.00308358
0.00305081
0.00305086
0.00304811
0.00304244
0.00300493
0.00304002
0.00303997
0.0030077
0.00300766
0.00304237
0.00300496
0.00304003
0.00304003
0.0030077
0.00300777
0.00303996
0.00300764
0.00300767
0.00304242
0.003005
0.00304
0.00300781
0.00300769
0.00300497
0.00299932
0.00296224
0.00299693
0.00299698
0.002965
0.00296492
0.00299938
0.00296229
0.00299693
0.00299694
0.00296501
0.00296493
0.00299704
0.00296494
0.00296507
0.00299936
0.00296231
0.00299702
0.00296492
0.00296502
0.00296233
0.00295669
0.00291997
0.00295429
0.00295443
0.00292267
0.00292248
0.00295677
0.0029199
0.00295428
0.00295441
0.00292266
0.00292251
0.00295437
0.00292244
0.0029226
0.00295676
0.00291993
0.0029544
0.00292243
0.00292262
0.00291994
0.00291445
0.00287783
0.00291207
0.0029121
0.00288058
0.00288043
0.00291444
0.00287766
0.00291211
0.00291223
0.00288056
0.00288043
0.00291212
0.00288043
0.00288055
0.00291452
0.00287778
0.0029121
0.00288032
0.00288057
0.00287788
0.00287235
0.00283601
0.0028699
0.00286988
0.0028388
0.00283894
0.0028722
0.00283602
0.00286999
0.00287017
0.00283885
0.00283868
0.00287013
0.00283895
0.00283872
0.0028724
0.00283609
0.00287012
0.00283853
0.00283869
0.00283606
0.00283057
0.00279457
0.00282816
0.0028284
0.00279739
0.00279717
0.00283063
0.00279467
0.00282821
0.00282847
0.00279753
0.00279733
0.00282835
0.00279721
0.00279735
0.00283076
0.00279473
0.00282838
0.00279707
0.0027974
0.00279456
0.00278923
0.00275349
0.00278694
0.00278708
0.00275623
0.00275636
0.00278942
0.00275338
0.002787
0.00278712
0.00275646
0.00275636
0.002787
0.0027564
0.00275645
0.00278943
0.00275368
0.00278692
0.00275612
0.00275648
0.00275357
0.00274826
0.00271276
0.00274604
0.00274598
0.00271544
0.00271554
0.00274812
0.00271274
0.00274613
0.00274617
0.00271563
0.00271556
0.00274623
0.00271558
0.00271549
0.00274834
0.00271295
0.00274606
0.00271568
0.00271563
0.00271285
0.0027076
0.0026721
0.00270545
0.00270556
0.00267514
0.00267504
0.00270758
0.00267219
0.0027055
0.00270538
0.00267518
0.00267523
0.0027056
0.00267511
0.00267506
0.0027076
0.00267222
0.00270548
0.00267545
0.00267524
0.00267233
0.00266701
0.00263206
0.00266505
0.00266512
0.00263522
0.00263497
0.00266698
0.00263209
0.00266507
0.00266506
0.00263528
0.00263527
0.00266506
0.00263509
0.00263503
0.00266708
0.00263197
0.00266514
0.00263521
0.00263503
0.00263213
0.00262717
0.00259219
0.0026253
0.00262508
0.00259503
0.00259535
0.00262691
0.00259235
0.00262527
0.00262535
0.00259513
0.00259513
0.00262502
0.00259542
0.00259543
0.0026272
0.00259243
0.00262504
0.00259502
0.00259552
0.00259236
0.00258692
0.00255312
0.0025852
0.00258552
0.00255599
0.00255574
0.00258727
0.00255262
0.00258526
0.00258522
0.00255598
0.00255599
0.00258547
0.00255577
0.00255575
0.00258704
0.00255298
0.00258551
0.0025561
0.00255573
0.00255277
0.002548
0.00251342
0.00254597
0.00254605
0.00251653
0.00251678
0.00254773
0.00251377
0.00254607
0.00254615
0.00251647
0.00251656
0.00254609
0.00251674
0.00251675
0.00254811
0.00251357
0.0025461
0.00251654
0.0025168
0.00251388
0.00250825
0.00247548
0.00250663
0.00250677
0.0024779
0.00247785
0.00250847
0.00247515
0.00250668
0.00250674
0.00247784
0.0024776
0.00250685
0.00247787
0.00247773
0.00250849
0.00247481
0.00250684
0.00247761
0.00247764
0.00247429
0.00247033
0.00243526
0.00246809
0.00246849
0.0024387
0.00243875
0.0024711
0.00243603
0.00246805
0.00246782
0.00243871
0.00243886
0.00246821
0.00243881
0.00243871
0.00246973
0.00243646
0.00246814
0.00243886
0.00243876
0.00243615
0.00243054
0.0023981
0.00242915
0.00242891
0.00240032
0.00240031
0.00243035
0.00239742
0.00242912
0.00242913
0.00240038
0.00240024
0.00242897
0.00240037
0.00240026
0.00243153
0.00239727
0.00242903
0.0024002
0.00240028
0.00239683
0.00239295
0.00235868
0.00239061
0.00239069
0.00236191
0.00236198
0.00239289
0.00235916
0.00239065
0.00239067
0.00236191
0.00236197
0.00239079
0.00236199
0.002362
0.00239236
0.00235984
0.00239079
0.00236202
0.00236196
0.00235994
0.00235402
0.00232152
0.00235253
0.00235253
0.00232364
0.00232364
0.0023544
0.00232129
0.0023525
0.00235243
0.00232367
0.00232364
0.00235243
0.00232364
0.00232366
0.00235495
0.00232072
0.00235239
0.00232364
0.00232363
0.00232053
0.0023164
0.0022833
0.00231408
0.0023141
0.00228576
0.00228581
0.0023162
0.0022834
0.00231413
0.0023142
0.00228574
0.00228581
0.00231417
0.00228581
0.00228583
0.00231577
0.00228365
0.00231421
0.00228582
0.00228583
0.0022837
0.00227842
0.00224537
0.0022763
0.00227636
0.00224798
0.00224789
0.0022785
0.00224541
0.00227625
0.00227633
0.002248
0.00224788
0.00227629
0.00224789
0.00224795
0.00227874
0.00224535
0.00227628
0.00224787
0.00224798
0.00224532
0.00224046
0.00220788
0.00223851
0.00223843
0.00221022
0.00221039
0.0022406
0.00220787
0.00223855
0.00223851
0.00221024
0.00221029
0.00223853
0.00221042
0.00221025
0.00224043
0.00220782
0.00223854
0.0022103
0.00221022
0.0022079
0.00220292
0.00217025
0.00220091
0.00220108
0.00217292
0.0021728
0.00220302
0.00217023
0.0022009
0.00220086
0.00217288
0.00217295
0.00220084
0.00217276
0.00217295
0.00220297
0.00217044
0.00220081
0.00217294
0.00217293
0.00217035
0.00216534
0.00213279
0.00216347
0.00216333
0.00213518
0.0021352
0.00216532
0.00213272
0.00216349
0.00216356
0.00213522
0.00213521
0.00216354
0.00213523
0.00213518
0.00216545
0.00213274
0.00216355
0.00213521
0.00213522
0.00213279
0.00212789
0.00209591
0.00212589
0.002126
0.00209833
0.00209839
0.00212788
0.00209589
0.00212591
0.00212583
0.00209829
0.0020983
0.00212584
0.00209838
0.00209832
0.00212788
0.00209595
0.00212586
0.00209829
0.00209829
0.00209592
0.00209102
0.00205852
0.00208908
0.00208909
0.00206102
0.00206099
0.00209096
0.00205854
0.00208906
0.0020891
0.00206104
0.00206111
0.00208911
0.002061
0.00206109
0.00209109
0.00205855
0.00208909
0.00206112
0.00206109
0.00205854
0.00205365
0.00202165
0.00205169
0.00205168
0.00202396
0.00202396
0.00205368
0.00202161
0.0020517
0.00205172
0.00202396
0.0020239
0.00205171
0.00202397
0.0020239
0.00205366
0.00202156
0.00205172
0.00202388
0.0020239
0.00202156
0.00201679
0.00198481
0.00201478
0.00201477
0.00198724
0.00198725
0.00201676
0.00198486
0.0020148
0.00201474
0.00198722
0.00198725
0.00201473
0.00198724
0.00198725
0.00201673
0.00198486
0.00201473
0.00198727
0.00198726
0.00198488
0.00197998
0.00194827
0.00197805
0.00197808
0.00195054
0.00195052
0.00198
0.0019482
0.00197802
0.00197806
0.00195057
0.00195054
0.00197808
0.00195052
0.00195054
0.00198001
0.00194822
0.00197808
0.00195053
0.00195054
0.00194821
0.00194344
0.00191168
0.00194142
0.00194138
0.00191404
0.00191406
0.0019434
0.00191176
0.00194146
0.00194141
0.00191402
0.00191401
0.0019414
0.00191407
0.00191402
0.00194338
0.00191172
0.00194139
0.00191401
0.00191403
0.00191173
0.00190685
0.0018754
0.00190489
0.00190495
0.00187759
0.00187757
0.00190691
0.00187535
0.00190486
0.00190489
0.0018776
0.00187763
0.00190491
0.00187758
0.00187763
0.00190692
0.00187537
0.00190491
0.00187763
0.00187761
0.00187537
0.0018706
0.00183917
0.00186856
0.00186851
0.00184143
0.00184144
0.00187055
0.0018392
0.00186857
0.00186856
0.00184144
0.00184137
0.00186854
0.00184142
0.00184139
0.00187054
0.0018392
0.00186854
0.00184137
0.00184141
0.0018392
0.00183436
0.00180312
0.00183235
0.00183239
0.00180527
0.00180523
0.00183439
0.0018031
0.00183236
0.00183236
0.00180526
0.00180533
0.00183238
0.00180528
0.00180529
0.00183442
0.00180311
0.00183238
0.00180534
0.00180528
0.00180309
0.00179834
0.00176718
0.00179631
0.00179626
0.00176935
0.00176939
0.00179832
0.00176719
0.00179629
0.00179629
0.00176937
0.00176929
0.00179626
0.00176934
0.00176933
0.0017983
0.0017672
0.00179626
0.00176927
0.00176932
0.0017672
0.0017624
0.0017314
0.00176034
0.00176039
0.0017335
0.00173345
0.0017624
0.00173142
0.00176038
0.00176036
0.00173349
0.00173359
0.00176038
0.00173352
0.00173355
0.00176244
0.00173143
0.00176037
0.00173361
0.00173355
0.00173143
0.00172665
0.00169581
0.00172462
0.00172459
0.00169791
0.00169803
0.00172669
0.00169584
0.00172459
0.00172463
0.00169791
0.00169787
0.00172463
0.00169795
0.00169789
0.00172666
0.0016958
0.00172463
0.00169785
0.0016979
0.0016958
0.00169106
0.00166033
0.00168899
0.00168908
0.00166238
0.00166227
0.00169105
0.00166023
0.00168903
0.00168902
0.00166242
0.00166244
0.00168899
0.00166226
0.00166241
0.00169107
0.00166033
0.00168901
0.00166244
0.00166243
0.00166033
0.0016556
0.00162495
0.00165356
0.00165345
0.00162706
0.00162711
0.00165553
0.00162505
0.00165356
0.00165354
0.00162698
0.00162698
0.00165356
0.00162715
0.00162702
0.00165558
0.00162494
0.00165358
0.00162699
0.00162698
0.00162494
0.00162022
0.0015898
0.00161821
0.00161829
0.00159184
0.00159184
0.00162032
0.00158979
0.00161814
0.00161818
0.00159185
0.0015919
0.0016182
0.00159183
0.00159193
0.00162022
0.00158985
0.00161816
0.00159192
0.00159194
0.00158988
0.00158512
0.00155491
0.00158309
0.00158307
0.00155692
0.00155693
0.0015851
0.00155489
0.00158311
0.00158313
0.00155694
0.00155688
0.00158318
0.0015569
0.00155682
0.00158515
0.00155485
0.0015832
0.00155686
0.00155683
0.00155479
0.00155024
0.00152008
0.00154823
0.00154822
0.00152214
0.00152207
0.00155022
0.00152006
0.00154825
0.00154818
0.00152216
0.00152213
0.00154811
0.00152216
0.00152215
0.00155017
0.00152009
0.00154811
0.00152214
0.00152214
0.0015201
0.0015154
0.00148549
0.00151343
0.00151337
0.00148748
0.00148749
0.00151539
0.0014855
0.00151344
0.00151344
0.00148746
0.0014875
0.00151349
0.00148745
0.00148745
0.00151543
0.00148551
0.00151349
0.0014875
0.00148744
0.00148547
0.00148089
0.00145134
0.00147893
0.00147896
0.00145339
0.00145343
0.0014809
0.00145137
0.00147891
0.00147894
0.0014534
0.00145338
0.00147888
0.00145342
0.0014534
0.0014809
0.00145133
0.00147888
0.00145339
0.00145339
0.00145136
0.0014467
0.00141667
0.0014448
0.00144481
0.00141872
0.00141874
0.00144673
0.00141668
0.0014448
0.00144478
0.00141871
0.00141872
0.00144483
0.00141876
0.00141875
0.0014467
0.00141667
0.00144484
0.00141874
0.00141876
0.00141669
0.00141198
0.0013823
0.00141003
0.00141004
0.00138422
0.00138423
0.001412
0.00138228
0.00141002
0.00141003
0.00138423
0.00138424
0.00141005
0.00138422
0.0013842
0.00141199
0.00138228
0.00141004
0.0013842
0.00138419
0.00138224
0.00137774
0.001349
0.00137576
0.00137577
0.00135081
0.0013508
0.00137772
0.00134898
0.00137578
0.00137578
0.00135084
0.00135083
0.00137573
0.00135081
0.00135081
0.00137772
0.001349
0.00137572
0.00135081
0.0013508
0.00134898
0.00134459
0.00131599
0.00134264
0.00134263
0.00131808
0.00131808
0.00134458
0.001316
0.00134267
0.00134266
0.00131809
0.00131808
0.00134266
0.0013181
0.00131814
0.0013446
0.001316
0.00134265
0.0013181
0.00131815
0.00131603
0.00131157
0.00128277
0.0013099
0.0013099
0.00128501
0.00128501
0.00131158
0.00128277
0.0013099
0.00130989
0.00128499
0.00128499
0.00130993
0.001285
0.001285
0.00131157
0.00128277
0.00130994
0.001285
0.001285
0.00128277
0.00127813
0.00124738
0.00127641
0.00127641
0.00124965
0.00124964
0.00127813
0.00124737
0.0012764
0.0012764
0.00124964
0.00124964
0.0012764
0.00124963
0.00124963
0.00127812
0.00124737
0.0012764
0.00124963
0.00124963
0.00124737
0.00124241
0.00121003
0.00124045
0.00124045
0.00121218
0.00121218
0.0012424
0.00121003
0.00124045
0.00124045
0.00121218
0.00121218
0.00124044
0.00121217
0.00121217
0.0012424
0.00121003
0.00124044
0.00121217
0.00121217
0.00121002
0.00120488
0.00117163
0.00120259
0.00120259
0.00117363
0.00117363
0.00120487
0.00117164
0.00120259
0.0012026
0.00117363
0.00117364
0.00120258
0.00117363
0.00117363
0.00120488
0.00117164
0.00120258
0.00117363
0.00117363
0.00117163
0.0011664
0.00113386
0.00116392
0.00116392
0.00113561
0.00113561
0.0011664
0.00113386
0.00116392
0.00116393
0.00113561
0.00113561
0.00116393
0.00113561
0.00113561
0.00116641
0.00113386
0.00116392
0.00113561
0.00113561
0.00113386
0.001129
0.00109954
0.00112662
0.00112663
0.00110122
0.00110122
0.001129
0.00109954
0.00112662
0.00112662
0.00110122
0.00110122
0.00112663
0.00110122
0.00110122
0.001129
0.00109954
0.00112663
0.00110122
0.00110122
0.00109954
0.00109523
0.00106849
0.00109328
0.00109328
0.00107049
0.00107048
0.00109524
0.00106849
0.00109328
0.00109328
0.00107048
0.00107048
0.00109328
0.00107048
0.00107049
0.00109523
0.00106849
0.00109328
0.00107048
0.00107049
0.00106849
0.00106445
0.0010391
0.00106305
0.00106305
0.00104115
0.00104115
0.00106445
0.0010391
0.00106305
0.00106305
0.00104115
0.00104115
0.00106305
0.00104115
0.00104115
0.00106445
0.0010391
0.00106305
0.00104115
0.00104115
0.0010391
0.00103516
0.00100961
0.00103385
0.00103385
0.00101159
0.00101159
0.00103516
0.00100961
0.00103385
0.00103385
0.00101159
0.00101159
0.00103385
0.00101159
0.00101159
0.00103516
0.00100961
0.00103385
0.00101159
0.00101159
0.00100961
0.00100549
0.000978477
0.00100398
0.00100398
0.000980444
0.000980444
0.0010055
0.000978477
0.00100398
0.00100398
0.000980444
0.000980444
0.00100398
0.000980444
0.000980444
0.00100549
0.000978476
0.00100398
0.000980444
0.000980444
0.000978476
0.000974078
0.000945264
0.000972336
0.000972336
0.00094727
0.00094727
0.000974078
0.000945264
0.000972336
0.000972336
0.00094727
0.00094727
0.000972336
0.00094727
0.00094727
0.000974076
0.000945263
0.000972336
0.000947269
0.000947269
0.000945264
0.000940609
0.000910477
0.0009387
0.000938701
0.000912517
0.000912517
0.000940609
0.000910477
0.0009387
0.0009387
0.000912517
0.000912517
0.0009387
0.000912517
0.000912517
0.000940608
0.000910477
0.0009387
0.000912517
0.000912517
0.000910476
0.000905671
0.000874824
0.000903668
0.000903668
0.000876881
0.000876881
0.00090567
0.000874824
0.000903667
0.000903668
0.000876881
0.000876882
0.000903668
0.000876881
0.000876882
0.000905671
0.000874825
0.000903667
0.000876882
0.000876882
0.000874824
0.000869945
0.00083877
0.000867895
0.000867895
0.000840832
0.000840832
0.000869945
0.00083877
0.000867895
0.000867896
0.000840832
0.000840833
0.000867896
0.000840832
0.000840833
0.000869946
0.00083877
0.000867896
0.000840833
0.000840833
0.00083877
0.00083386
0.000802554
0.000831788
0.000831788
0.00080462
0.00080462
0.00083386
0.000802554
0.000831788
0.000831788
0.00080462
0.00080462
0.000831788
0.00080462
0.00080462
0.00083386
0.000802554
0.000831788
0.00080462
0.00080462
0.000802554
0.000797636
0.0007663
0.000795559
0.000795559
0.000768368
0.000768368
0.000797636
0.0007663
0.000795559
0.000795559
0.000768368
0.000768368
0.000795559
0.000768368
0.000768368
0.000797636
0.0007663
0.000795559
0.000768368
0.000768368
0.0007663
0.000761379
0.000730023
0.0007593
0.0007593
0.00073209
0.00073209
0.000761378
0.000730023
0.0007593
0.0007593
0.00073209
0.00073209
0.0007593
0.00073209
0.00073209
0.000761379
0.000730023
0.0007593
0.00073209
0.00073209
0.000730023
0.0007251
0.000693749
0.000723021
0.000723021
0.000695817
0.000695817
0.0007251
0.000693749
0.00072302
0.000723021
0.000695817
0.000695817
0.000723021
0.000695817
0.000695817
0.0007251
0.000693749
0.00072302
0.000695817
0.000695817
0.000693749
0.000688827
0.00065747
0.000686748
0.000686748
0.000659538
0.000659537
0.000688827
0.00065747
0.000686748
0.000686748
0.000659537
0.000659537
0.000686748
0.000659537
0.000659538
0.000688827
0.00065747
0.000686748
0.000659537
0.000659537
0.00065747
0.000652547
0.000621192
0.000650467
0.000650467
0.00062326
0.00062326
0.000652546
0.000621192
0.000650467
0.000650467
0.00062326
0.00062326
0.000650467
0.00062326
0.00062326
0.000652547
0.000621192
0.000650467
0.00062326
0.00062326
0.000621192
0.00061627
0.000584917
0.000614192
0.000614192
0.000586984
0.000586984
0.00061627
0.000584918
0.000614192
0.000614192
0.000586984
0.000586984
0.000614192
0.000586984
0.000586984
0.00061627
0.000584917
0.000614192
0.000586984
0.000586984
0.000584917
0.000579995
0.000548639
0.000577916
0.000577915
0.000550706
0.000550706
0.000579995
0.00054864
0.000577916
0.000577916
0.000550706
0.000550706
0.000577916
0.000550707
0.000550707
0.000579995
0.000548639
0.000577915
0.000550706
0.000550706
0.000548639
0.000543717
0.000512367
0.000541638
0.000541638
0.000514435
0.000514434
0.000543717
0.000512367
0.000541638
0.000541638
0.000514434
0.000514434
0.000541638
0.000514434
0.000514435
0.000543717
0.000512367
0.000541638
0.000514434
0.000514434
0.000512367
0.000507444
0.000476088
0.000505365
0.000505365
0.000478156
0.000478156
0.000507444
0.000476089
0.000505365
0.000505365
0.000478155
0.000478156
0.000505365
0.000478156
0.000478156
0.000507444
0.000476088
0.000505365
0.000478156
0.000478156
0.000476088
0.000471167
0.000439814
0.000469088
0.000469089
0.000441881
0.000441881
0.000471167
0.000439814
0.000469088
0.000469088
0.000441881
0.000441881
0.000469089
0.000441881
0.000441881
0.000471167
0.000439814
0.000469088
0.000441881
0.000441881
0.000439814
0.000434891
0.000403537
0.000432811
0.000432811
0.000405604
0.000405605
0.00043489
0.000403538
0.000432811
0.000432811
0.000405604
0.000405605
0.000432812
0.000405605
0.000405605
0.000434891
0.000403537
0.000432811
0.000405604
0.000405604
0.000403537
0.000398615
0.000367259
0.000396536
0.000396536
0.000369327
0.000369326
0.000398615
0.000367259
0.000396536
0.000396536
0.000369327
0.000369326
0.000396536
0.000369326
0.000369327
0.000398615
0.000367258
0.000396536
0.000369326
0.000369327
0.000367259
0.000362336
0.000330983
0.000360258
0.000360258
0.000333049
0.000333049
0.000362335
0.000330983
0.000360258
0.000360258
0.000333048
0.000333049
0.000360258
0.000333049
0.000333049
0.000362336
0.000330983
0.000360258
0.000333049
0.000333049
0.000330983
0.000326059
0.000294704
0.00032398
0.00032398
0.000296771
0.000296771
0.000326059
0.000294704
0.000323981
0.00032398
0.00029677
0.000296771
0.000323981
0.000296771
0.000296771
0.000326059
0.000294704
0.00032398
0.000296771
0.000296771
0.000294704
0.00028978
0.000258425
0.000287703
0.000287703
0.000260492
0.000260491
0.000289781
0.000258425
0.000287702
0.000287703
0.000260492
0.000260492
0.000287703
0.000260492
0.000260492
0.000289781
0.000258425
0.000287703
0.000260491
0.000260491
0.000258425
0.0002535
0.000222149
0.000251425
0.000251424
0.000224214
0.000224214
0.0002535
0.000222149
0.000251425
0.000251425
0.000224214
0.000224214
0.000251425
0.000224214
0.000224214
0.0002535
0.000222149
0.000251425
0.000224214
0.000224214
0.000222149
0.000217222
0.000185873
0.000215147
0.000215147
0.000187936
0.000187936
0.000217221
0.000185873
0.000215147
0.000215147
0.000187936
0.000187936
0.000215147
0.000187936
0.000187937
0.000217221
0.000185873
0.000215147
0.000187936
0.000187936
0.000185873
0.000180942
0.000149594
0.000178871
0.000178871
0.000151655
0.000151656
0.000180941
0.000149596
0.00017887
0.000178871
0.000151656
0.000151656
0.000178871
0.000151655
0.000151656
0.000180942
0.000149595
0.000178871
0.000151655
0.000151655
0.000149595
0.000144655
0.000113318
0.000142593
0.000142593
0.000115374
0.000115373
0.000144656
0.000113318
0.000142593
0.000142593
0.000115374
0.000115373
0.000142594
0.000115373
0.000115373
0.000144656
0.000113317
0.000142594
0.000115373
0.000115373
0.000113317
0.000108357
7.70361e-05
0.000106312
0.000106312
7.90863e-05
7.90858e-05
0.000108358
7.7036e-05
0.000106312
0.000106312
7.90857e-05
7.90852e-05
0.000106311
7.9087e-05
7.90866e-05
0.000108357
7.70343e-05
0.000106311
7.90864e-05
7.90867e-05
7.70352e-05
7.20387e-05
4.07964e-05
7.00271e-05
7.00262e-05
4.28432e-05
4.28447e-05
7.20376e-05
4.07977e-05
7.00264e-05
7.00253e-05
4.28413e-05
4.28412e-05
7.00264e-05
4.28432e-05
4.28409e-05
7.20375e-05
4.07937e-05
7.00262e-05
4.28408e-05
4.28397e-05
4.07937e-05
3.58302e-05
8.40574e-06
3.397e-05
3.39708e-05
1.14261e-05
1.1426e-05
3.58304e-05
8.40594e-06
3.39687e-05
3.39669e-05
1.1427e-05
1.1421e-05
3.3967e-05
1.14259e-05
1.14192e-05
3.58271e-05
8.40276e-06
3.39663e-05
1.14244e-05
1.14245e-05
8.40135e-06
5.18772e-06
6.90424e-06
6.90421e-06
5.18885e-06
6.90459e-06
6.9009e-06
6.05987e-06
6.05952e-06
6.05861e-06
6.89984e-06
5.18693e-06
6.90364e-06
0.00354227
0.00354481
0.00354363
0.00354363
0.00357092
0.00354482
0.0035743
0.00354514
0.00357084
0.00354488
0.00354509
0.00357433
0.00355609
0.00358637
0.00357779
0.00351474
0.00352839
0.0035323
0.00350713
0.00350504
0.0035106
0.00351464
0.00352831
0.00353221
0.00350703
0.0035307
0.00353064
0.00353061
0.00350411
0.00350412
0.00350407
0.00350408
0.00351439
0.00352607
0.00353128
0.00352199
0.00353352
0.00351155
0.00352219
0.00350517
0.00351056
0.00351429
0.00353119
0.00352606
0.00352186
0.0035333
0.00352211
0.00351145
0.00352881
0.00353186
0.00351905
0.00351132
0.00351129
0.00348717
0.00350143
0.00350125
0.00348529
0.00349869
0.0034843
0.00348714
0.00350141
0.00350113
0.00348524
0.0034951
0.00349503
0.00349507
0.00346708
0.00346708
0.00346703
0.00346707
0.00348502
0.00349991
0.00349356
0.00348428
0.00349835
0.00348556
0.0034842
0.00349867
0.00348428
0.00348501
0.00349355
0.00349995
0.00348432
0.00349835
0.00348424
0.00348557
0.00350161
0.00350163
0.00348271
0.00348601
0.00348595
0.0034448
0.00345964
0.00346044
0.00344359
0.00345848
0.00344274
0.0034449
0.00345958
0.0034604
0.00344364
0.00345709
0.00345703
0.00345708
0.0034245
0.00342451
0.00342446
0.0034245
0.0034437
0.00345916
0.00345513
0.00344469
0.00345819
0.00344416
0.00344469
0.00345849
0.0034427
0.00344367
0.00345514
0.00345928
0.0034447
0.00345818
0.00344472
0.0034441
0.00346003
0.00345994
0.00344203
0.00344397
0.00344398
0.00339856
0.00341495
0.00341632
0.00339709
0.00341426
0.00339654
0.00339855
0.00341483
0.0034164
0.00339715
0.00341289
0.00341283
0.00341287
0.00337674
0.00337673
0.00337669
0.00337671
0.00339765
0.00341484
0.00341116
0.00339934
0.00341426
0.00339781
0.00339938
0.00341426
0.00339655
0.00339766
0.00341115
0.00341486
0.0033995
0.00341428
0.00339942
0.00339775
0.00341509
0.00341511
0.00339604
0.00339723
0.00339724
0.00334953
0.00336657
0.00336778
0.0033482
0.00336614
0.00334791
0.00334941
0.00336656
0.00336792
0.00334818
0.0033645
0.00336446
0.00336448
0.0033279
0.00332791
0.00332787
0.0033279
0.00334899
0.00336656
0.00336299
0.00335075
0.0033662
0.00334891
0.00335076
0.00336613
0.0033479
0.00334899
0.00336301
0.00336662
0.00335071
0.00336619
0.00335079
0.00334889
0.00336663
0.00336659
0.00334746
0.00334827
0.00334832
0.00330055
0.0033177
0.00331867
0.00329963
0.00331745
0.00329941
0.0033004
0.00331767
0.00331876
0.00329962
0.0033158
0.00331578
0.0033158
0.00327978
0.00327978
0.00327975
0.00327978
0.00330044
0.00331772
0.00331442
0.00330236
0.00331749
0.00330027
0.00330242
0.00331742
0.00329938
0.00330041
0.00331446
0.00331753
0.00330216
0.0033175
0.00330238
0.00330042
0.00331777