/*--------------------------------*- C++ -*----------------------------------*\
| =========                 |                                                 |
| \\      /  F ield         | OpenFOAM: The Open Source CFD Toolbox           |
|  \\    /   O peration     | Version:  v1906                                 |
|   \\  /    A nd           | Web:      www.OpenFOAM.com                      |
|    \\/     M anipulation  |                                                 |
\*---------------------------------------------------------------------------*/
FoamFile
{
    version     2.0;
    format      ascii;
    class       volScalarField;
    location    "212.5";
    object      epsilon;
}
// * * * * * * * * * * * * * * * * * * * * * * * * * * * * * * * * * * * * * //

dimensions      [0 2 -3 0 0 0 0];


internalField   nonuniform List<scalar> 
171728
(
9.44956e-09
4.79087e-09
5.31843e-09
4.97104e-09
9.35887e-09
4.40509e-09
5.47517e-09
4.5152e-09
9.46686e-09
4.06208e-09
5.82757e-09
4.13415e-09
9.58724e-09
3.77402e-09
5.9513e-09
3.8161e-09
9.72163e-09
3.54577e-09
5.44876e-09
3.54112e-09
9.86972e-09
3.36716e-09
4.59133e-09
3.28711e-09
1.00314e-08
3.2306e-09
3.9638e-09
3.05688e-09
1.0206e-08
3.14292e-09
3.55578e-09
2.8692e-09
1.03923e-08
3.10182e-09
3.26951e-09
2.72637e-09
1.05875e-08
3.10482e-09
3.14945e-09
2.61307e-09
1.07899e-08
3.14724e-09
3.16142e-09
2.52813e-09
1.10061e-08
3.23688e-09
3.20494e-09
2.49031e-09
1.12318e-08
3.38617e-09
3.32227e-09
2.50583e-09
1.14678e-08
3.58882e-09
3.52801e-09
2.58603e-09
1.17135e-08
3.88971e-09
3.82732e-09
2.75171e-09
1.19657e-08
4.31298e-09
4.25672e-09
3.06124e-09
1.22266e-08
4.92154e-09
4.86492e-09
3.5561e-09
1.24906e-08
5.7953e-09
5.76863e-09
4.48392e-09
1.27666e-08
7.0563e-09
7.00556e-09
5.83099e-09
1.30545e-08
8.95146e-09
8.89336e-09
8.82546e-09
1.33609e-08
1.18095e-08
1.15897e-08
1.24155e-08
1.37034e-08
1.53515e-08
1.57403e-08
2.1601e-08
1.40922e-08
2.07759e-08
2.02338e-08
2.93929e-08
1.45268e-08
2.82024e-08
2.87207e-08
5.88099e-08
1.50382e-08
3.69651e-08
3.68284e-08
7.55079e-08
1.56743e-08
4.92255e-08
4.92781e-08
1.17242e-07
1.64582e-08
6.45832e-08
6.47777e-08
1.71204e-07
1.74285e-08
8.23985e-08
8.26349e-08
2.34101e-07
1.86496e-08
1.0381e-07
1.04043e-07
3.08454e-07
2.01781e-08
1.28085e-07
1.28272e-07
3.8776e-07
2.21047e-08
1.56035e-07
1.55972e-07
4.67066e-07
2.447e-08
1.88174e-07
1.86998e-07
5.42438e-07
2.75219e-08
2.23221e-07
2.21075e-07
6.1244e-07
3.12105e-08
2.62153e-07
2.5994e-07
6.77293e-07
3.58595e-08
3.03382e-07
2.99583e-07
7.34439e-07
4.14923e-08
3.47044e-07
3.43597e-07
7.86315e-07
4.82184e-08
3.92681e-07
3.88292e-07
8.31896e-07
5.61362e-08
4.38788e-07
4.36382e-07
8.73371e-07
6.55103e-08
4.84342e-07
4.83642e-07
9.11302e-07
7.64977e-08
5.31838e-07
5.31626e-07
9.44408e-07
8.90685e-08
5.77321e-07
5.79186e-07
9.7489e-07
1.03723e-07
6.23872e-07
6.25197e-07
9.98345e-07
1.1995e-07
6.66247e-07
6.66585e-07
1.02235e-06
1.39439e-07
7.09441e-07
7.09901e-07
1.05008e-06
1.63526e-07
7.5234e-07
7.52592e-07
1.08022e-06
1.82982e-07
7.72126e-07
7.72168e-07
1.08569e-06
1.92965e-07
7.73955e-07
7.74052e-07
1.07008e-06
2.00091e-07
7.7224e-07
7.72379e-07
1.04938e-06
2.17e-07
7.88482e-07
7.88641e-07
1.04939e-06
2.53106e-07
8.24375e-07
8.24519e-07
1.07454e-06
3.03924e-07
8.69524e-07
8.69648e-07
1.11625e-06
3.59034e-07
9.16667e-07
9.16786e-07
1.16926e-06
4.00256e-07
9.49574e-07
9.49688e-07
1.20987e-06
4.22694e-07
9.66998e-07
9.67104e-07
1.23318e-06
4.32618e-07
9.74691e-07
9.74792e-07
1.24429e-06
4.3645e-07
9.77769e-07
9.77866e-07
1.24898e-06
4.37808e-07
9.78935e-07
9.79031e-07
1.25094e-06
4.38133e-07
9.79198e-07
9.79296e-07
1.25146e-06
4.38137e-07
9.79141e-07
9.7924e-07
1.25129e-06
4.38193e-07
9.79237e-07
9.79334e-07
1.25142e-06
4.38194e-07
9.79228e-07
9.79326e-07
1.25152e-06
4.3817e-07
9.79183e-07
9.79283e-07
1.25131e-06
4.38183e-07
9.79228e-07
9.79327e-07
1.25158e-06
4.38173e-07
9.79189e-07
9.79288e-07
1.25134e-06
4.38176e-07
9.79217e-07
9.79317e-07
1.25152e-06
4.38175e-07
9.79198e-07
9.79297e-07
1.25134e-06
4.38177e-07
9.79204e-07
9.79302e-07
1.2515e-06
4.38176e-07
9.79205e-07
9.79305e-07
1.25139e-06
4.38176e-07
9.79201e-07
9.79299e-07
1.25141e-06
4.38174e-07
9.79202e-07
9.79301e-07
1.25148e-06
4.38172e-07
9.79205e-07
9.79304e-07
1.25144e-06
4.38172e-07
9.79202e-07
9.793e-07
1.2514e-06
4.38171e-07
9.79197e-07
9.79295e-07
1.2514e-06
4.3817e-07
9.79207e-07
9.79303e-07
1.25149e-06
4.38168e-07
9.79198e-07
9.79295e-07
1.25144e-06
4.38168e-07
9.79198e-07
9.79295e-07
1.25143e-06
4.38169e-07
9.792e-07
9.79297e-07
1.25136e-06
4.38167e-07
9.79202e-07
9.79299e-07
1.2515e-06
4.38166e-07
9.79198e-07
9.79293e-07
1.25139e-06
4.38164e-07
9.79204e-07
9.79295e-07
1.2514e-06
4.38163e-07
9.79203e-07
9.79299e-07
1.25151e-06
4.38161e-07
9.79196e-07
9.79293e-07
1.25147e-06
4.38161e-07
9.79198e-07
9.79296e-07
1.25137e-06
4.38161e-07
9.79202e-07
9.79295e-07
1.2514e-06
4.38161e-07
9.79201e-07
9.79295e-07
1.25143e-06
4.38161e-07
9.79202e-07
9.79302e-07
1.25138e-06
4.38161e-07
9.79203e-07
9.79303e-07
1.25133e-06
4.38162e-07
9.79212e-07
9.79308e-07
1.25135e-06
4.38163e-07
9.7922e-07
9.79319e-07
1.25143e-06
4.38165e-07
9.79229e-07
9.79326e-07
1.25149e-06
4.38169e-07
9.7925e-07
9.79346e-07
1.25148e-06
4.38174e-07
9.79282e-07
9.7938e-07
1.25145e-06
4.38171e-07
9.79322e-07
9.79421e-07
1.25141e-06
4.37621e-07
9.79014e-07
9.79101e-07
1.25106e-06
4.18921e-07
9.21203e-07
9.21205e-07
1.20627e-06
4.8524e-09
4.29626e-09
4.2528e-09
5.00803e-09
3.95932e-09
4.20455e-09
9.65191e-09
9.72527e-09
9.77249e-09
9.66764e-09
4.20993e-09
4.15053e-09
4.75401e-09
4.21703e-09
4.27586e-09
5.00214e-09
4.82236e-09
4.41052e-09
4.91857e-09
4.8598e-09
4.6101e-09
4.57333e-09
4.97947e-09
4.57131e-09
4.72047e-09
4.81737e-09
4.37123e-09
4.53569e-09
5.40159e-09
4.49941e-09
5.10624e-09
4.70382e-09
4.35168e-09
4.81889e-09
5.43311e-09
4.53632e-09
4.57273e-09
4.37571e-09
4.01302e-09
4.51104e-09
4.47956e-09
4.2388e-09
4.20219e-09
4.5382e-09
4.18028e-09
4.25537e-09
4.44343e-09
3.93097e-09
4.18694e-09
5.00736e-09
4.14326e-09
4.72594e-09
4.28673e-09
4.05686e-09
4.44032e-09
5.73845e-09
4.18128e-09
4.19325e-09
3.98429e-09
3.68459e-09
4.15798e-09
4.11379e-09
3.93279e-09
3.87427e-09
4.15194e-09
3.85198e-09
3.83198e-09
4.10886e-09
3.57017e-09
3.89294e-09
4.63417e-09
3.84075e-09
4.37626e-09
4.01171e-09
3.84943e-09
4.10339e-09
5.95096e-09
3.88314e-09
3.86513e-09
3.66023e-09
3.39914e-09
3.86042e-09
3.80317e-09
3.65437e-09
3.6121e-09
3.82864e-09
3.57292e-09
3.4947e-09
3.82703e-09
3.29976e-09
3.6457e-09
4.29597e-09
3.59806e-09
4.07389e-09
3.80412e-09
3.59403e-09
3.81559e-09
5.65076e-09
3.62998e-09
3.5699e-09
3.37789e-09
3.15818e-09
3.59231e-09
3.55565e-09
3.43245e-09
3.40706e-09
3.55263e-09
3.33389e-09
3.24336e-09
3.59071e-09
3.10006e-09
3.44561e-09
4.00739e-09
3.40699e-09
3.81206e-09
3.53881e-09
3.3327e-09
3.57404e-09
4.79789e-09
3.42407e-09
3.30746e-09
3.14154e-09
2.96306e-09
3.38633e-09
3.36368e-09
3.26913e-09
3.25439e-09
3.3169e-09
3.1286e-09
3.05925e-09
3.40367e-09
2.95164e-09
3.29341e-09
3.74694e-09
3.2613e-09
3.55752e-09
3.30632e-09
3.11114e-09
3.37993e-09
4.09032e-09
3.26482e-09
3.07363e-09
2.95038e-09
2.79832e-09
3.23688e-09
3.22458e-09
3.15621e-09
3.15091e-09
3.11502e-09
2.95642e-09
2.92223e-09
3.2621e-09
2.84687e-09
3.18551e-09
3.49734e-09
3.15946e-09
3.33271e-09
3.09337e-09
2.91508e-09
3.23381e-09
3.64927e-09
3.15789e-09
2.88089e-09
2.78837e-09
2.65681e-09
3.13389e-09
3.1315e-09
3.09013e-09
3.09509e-09
2.94657e-09
2.82063e-09
2.82775e-09
3.16676e-09
2.78858e-09
3.12752e-09
3.28357e-09
3.10861e-09
3.16743e-09
2.90157e-09
2.76395e-09
3.13772e-09
3.32589e-09
3.09808e-09
2.73364e-09
2.65045e-09
2.55023e-09
3.08287e-09
3.08828e-09
3.07401e-09
3.08505e-09
2.81494e-09
2.72069e-09
2.78046e-09
3.12009e-09
2.78174e-09
3.117e-09
3.13884e-09
3.10097e-09
3.07692e-09
2.75707e-09
2.66305e-09
3.09179e-09
3.16325e-09
3.08545e-09
2.61674e-09
2.54836e-09
2.48123e-09
3.07603e-09
3.08867e-09
3.09958e-09
3.11722e-09
2.7192e-09
2.65475e-09
2.787e-09
3.12053e-09
2.82369e-09
3.14827e-09
3.06544e-09
3.13584e-09
3.03927e-09
2.66166e-09
2.59966e-09
3.08808e-09
3.15221e-09
3.11032e-09
2.52722e-09
2.4839e-09
2.45157e-09
3.11243e-09
3.13284e-09
3.17166e-09
3.19376e-09
2.6577e-09
2.62584e-09
2.84194e-09
3.16541e-09
2.91588e-09
3.22737e-09
3.03923e-09
3.21379e-09
3.05197e-09
2.60238e-09
2.57741e-09
3.12333e-09
3.19128e-09
3.17913e-09
2.48122e-09
2.46221e-09
2.46698e-09
3.19618e-09
3.2201e-09
3.29559e-09
3.31677e-09
2.63678e-09
2.64059e-09
2.9469e-09
3.25441e-09
3.05792e-09
3.35536e-09
3.06049e-09
3.34722e-09
3.11258e-09
2.58846e-09
2.59842e-09
3.20432e-09
3.28931e-09
3.30091e-09
2.48598e-09
2.48769e-09
2.5357e-09
3.33469e-09
3.3582e-09
3.47943e-09
3.50323e-09
2.6616e-09
2.71574e-09
3.10166e-09
3.39687e-09
3.26092e-09
3.54806e-09
3.14123e-09
3.53656e-09
3.26349e-09
2.61988e-09
2.67383e-09
3.34057e-09
3.47129e-09
3.48627e-09
2.55121e-09
2.56946e-09
2.68791e-09
3.53648e-09
3.55628e-09
3.75144e-09
3.75448e-09
2.74973e-09
2.84544e-09
3.32426e-09
3.60865e-09
3.54652e-09
3.82457e-09
3.3153e-09
3.80755e-09
3.51853e-09
2.71028e-09
2.82509e-09
3.54457e-09
3.74724e-09
3.75373e-09
2.68915e-09
2.74922e-09
2.94233e-09
3.83425e-09
3.83944e-09
4.13627e-09
4.15271e-09
2.91261e-09
3.12167e-09
3.63542e-09
3.91002e-09
3.94947e-09
4.21923e-09
3.60438e-09
4.19971e-09
3.91756e-09
2.88529e-09
3.09684e-09
3.83762e-09
4.13974e-09
4.14499e-09
2.95707e-09
3.04464e-09
3.40849e-09
4.25241e-09
4.26842e-09
4.68873e-09
4.7017e-09
3.21995e-09
3.56923e-09
4.07049e-09
4.34136e-09
4.51389e-09
4.77108e-09
4.04116e-09
4.7544e-09
4.47908e-09
3.20035e-09
3.54961e-09
4.26421e-09
4.69537e-09
4.69017e-09
3.39043e-09
3.59446e-09
4.11259e-09
4.86482e-09
4.87277e-09
5.46463e-09
5.48135e-09
3.7493e-09
4.29725e-09
4.69819e-09
4.94622e-09
5.3057e-09
5.57797e-09
4.64941e-09
5.54354e-09
5.24789e-09
3.71685e-09
4.33089e-09
4.86167e-09
5.4948e-09
5.48558e-09
4.15635e-09
4.40069e-09
5.45095e-09
5.72182e-09
5.73943e-09
6.66602e-09
6.65891e-09
4.59628e-09
5.63858e-09
5.55845e-09
5.85537e-09
6.47661e-09
6.74873e-09
5.52704e-09
6.71627e-09
6.44498e-09
4.66252e-09
5.60763e-09
5.75825e-09
6.65883e-09
6.65444e-09
5.45534e-09
5.86875e-09
7.69803e-09
7.00516e-09
7.01577e-09
8.36069e-09
8.43006e-09
6.06896e-09
8.14987e-09
6.82584e-09
7.10298e-09
8.21116e-09
8.44333e-09
6.76233e-09
8.48456e-09
8.18491e-09
6.03179e-09
7.87456e-09
6.98603e-09
8.36814e-09
8.44778e-09
7.93787e-09
8.52285e-09
1.11121e-08
8.90394e-09
8.89334e-09
1.07022e-08
1.09144e-08
8.80199e-09
1.19607e-08
8.75868e-09
8.96802e-09
1.05148e-08
1.09811e-08
8.7391e-09
1.09715e-08
1.05132e-08
8.61846e-09
1.20253e-08
8.99088e-09
1.08916e-08
1.0754e-08
1.12589e-08
1.21532e-08
2.03167e-08
1.14498e-08
1.1783e-08
1.47679e-08
1.42442e-08
1.37365e-08
1.78888e-08
1.12442e-08
1.16998e-08
1.46036e-08
1.4542e-08
1.12304e-08
1.42929e-08
1.42263e-08
1.32392e-08
1.85207e-08
1.1493e-08
1.44187e-08
1.45115e-08
1.86995e-08
2.24328e-08
2.64041e-08
1.57402e-08
1.52458e-08
1.86741e-08
1.89096e-08
1.96364e-08
2.85705e-08
1.56019e-08
1.58667e-08
1.84968e-08
1.91583e-08
1.55044e-08
1.90992e-08
1.84552e-08
2.14217e-08
2.88334e-08
1.57681e-08
1.90093e-08
1.87885e-08
2.74481e-08
2.97541e-08
5.23924e-08
2.04772e-08
2.06415e-08
2.65851e-08
2.63987e-08
3.21268e-08
5.0967e-08
2.0272e-08
2.0398e-08
2.63171e-08
2.66149e-08
1.97362e-08
2.65003e-08
2.64892e-08
3.07348e-08
4.9864e-08
2.0122e-08
2.64372e-08
2.67803e-08
5.23745e-08
5.56862e-08
7.01908e-08
2.81836e-08
2.80426e-08
3.43259e-08
3.41801e-08
5.48744e-08
6.99821e-08
2.79265e-08
2.8913e-08
3.42262e-08
3.49049e-08
2.85261e-08
3.43984e-08
3.38767e-08
5.67938e-08
7.38047e-08
2.8766e-08
3.46192e-08
3.4283e-08
7.04175e-08
7.69438e-08
1.07236e-07
3.68917e-08
3.67873e-08
4.56176e-08
4.55797e-08
7.65376e-08
1.08165e-07
3.68247e-08
3.714e-08
4.54025e-08
4.61439e-08
3.63721e-08
4.57989e-08
4.53279e-08
7.81594e-08
1.07424e-07
3.6809e-08
4.57705e-08
4.57649e-08
1.08335e-07
1.16288e-07
1.60845e-07
4.90487e-08
4.89811e-08
6.04138e-08
6.04405e-08
1.17286e-07
1.6133e-07
4.8847e-08
4.96791e-08
6.04336e-08
6.10425e-08
4.85161e-08
6.0641e-08
5.99656e-08
1.17571e-07
1.61854e-07
4.902e-08
6.06469e-08
6.04471e-08
1.58917e-07
1.72379e-07
2.20262e-07
6.44247e-08
6.44052e-08
7.73808e-08
7.74026e-08
1.72958e-07
2.20797e-07
6.44114e-08
6.51413e-08
7.71653e-08
7.82819e-08
6.41643e-08
7.75225e-08
7.70403e-08
1.73343e-07
2.23218e-07
6.46216e-08
7.79482e-08
7.75496e-08
2.21358e-07
2.33551e-07
2.94275e-07
8.21336e-08
8.22497e-08
9.80388e-08
9.76997e-08
2.34083e-07
2.93666e-07
8.20526e-08
8.30547e-08
9.8283e-08
9.88188e-08
8.18115e-08
9.82321e-08
9.75776e-08
2.36437e-07
2.94651e-07
8.22799e-08
9.83409e-08
9.81037e-08
2.92716e-07
3.09863e-07
3.70857e-07
1.03679e-07
1.0324e-07
1.21293e-07
1.21654e-07
3.08968e-07
3.71005e-07
1.03762e-07
1.04423e-07
1.21039e-07
1.22334e-07
1.0315e-07
1.218e-07
1.21333e-07
3.10189e-07
3.73527e-07
1.03743e-07
1.21964e-07
1.21664e-07
3.71752e-07
3.86628e-07
4.51747e-07
1.27679e-07
1.28036e-07
1.48727e-07
1.48412e-07
3.87095e-07
4.49348e-07
1.27661e-07
1.28793e-07
1.49265e-07
1.49626e-07
1.27823e-07
1.48419e-07
1.48371e-07
3.89428e-07
4.51853e-07
1.28037e-07
1.48749e-07
1.48609e-07
4.50733e-07
4.68563e-07
5.27228e-07
1.56147e-07
1.56063e-07
1.7883e-07
1.79644e-07
4.65838e-07
5.27876e-07
1.56532e-07
1.56849e-07
1.78962e-07
1.79417e-07
1.55728e-07
1.80085e-07
1.79011e-07
4.68104e-07
5.26794e-07
1.5596e-07
1.78797e-07
1.78885e-07
5.26712e-07
5.42607e-07
5.98171e-07
1.86696e-07
1.87439e-07
2.12934e-07
2.134e-07
5.43688e-07
5.9829e-07
1.8704e-07
1.87654e-07
2.13289e-07
2.13792e-07
1.87063e-07
2.13986e-07
2.1263e-07
5.42554e-07
5.97571e-07
1.86804e-07
2.12416e-07
2.12228e-07
5.97164e-07
6.13822e-07
6.63429e-07
2.22226e-07
2.22724e-07
2.49687e-07
2.50446e-07
6.13666e-07
6.62316e-07
2.22512e-07
2.22527e-07
2.50777e-07
2.50379e-07
2.21659e-07
2.52267e-07
2.50067e-07
6.1253e-07
6.62746e-07
2.21261e-07
2.49738e-07
2.49616e-07
6.62946e-07
6.77478e-07
7.22048e-07
2.59206e-07
2.59881e-07
2.90251e-07
2.90384e-07
6.76109e-07
7.20455e-07
2.60506e-07
2.6045e-07
2.91459e-07
2.90816e-07
2.59894e-07
2.92694e-07
2.8982e-07
6.77381e-07
7.20688e-07
2.59419e-07
2.89613e-07
2.89431e-07
7.21177e-07
7.35323e-07
7.72158e-07
3.00892e-07
3.01163e-07
3.32695e-07
3.33454e-07
7.34183e-07
7.73154e-07
3.02445e-07
3.00939e-07
3.35877e-07
3.33144e-07
3.00164e-07
3.36167e-07
3.33322e-07
7.33492e-07
7.7297e-07
2.99815e-07
3.32229e-07
3.32652e-07
7.73932e-07
7.84134e-07
8.19104e-07
3.43589e-07
3.44081e-07
3.77999e-07
3.78138e-07
7.84996e-07
8.19215e-07
3.46874e-07
3.44359e-07
3.80375e-07
3.78074e-07
3.4464e-07
3.80882e-07
3.78568e-07
7.85631e-07
8.19678e-07
3.43805e-07
3.77029e-07
3.77673e-07
8.2064e-07
8.30612e-07
8.61009e-07
3.8969e-07
3.90483e-07
4.2406e-07
4.27363e-07
8.30951e-07
8.61463e-07
3.91947e-07
3.89536e-07
4.27048e-07
4.25595e-07
3.90186e-07
4.27618e-07
4.25601e-07
8.30715e-07
8.61761e-07
3.89386e-07
4.24128e-07
4.24977e-07
8.62806e-07
8.71275e-07
8.99814e-07
4.35604e-07
4.38986e-07
4.71868e-07
4.73916e-07
8.71188e-07
8.97398e-07
4.3888e-07
4.37775e-07
4.7489e-07
4.73283e-07
4.3741e-07
4.72564e-07
4.73774e-07
8.72453e-07
8.9985e-07
4.36837e-07
4.71947e-07
4.7316e-07
9.01599e-07
9.09966e-07
9.36373e-07
4.84309e-07
4.86094e-07
5.21683e-07
5.22265e-07
9.074e-07
9.33797e-07
4.8698e-07
4.8501e-07
5.22875e-07
5.20676e-07
4.86012e-07
5.20175e-07
5.21841e-07
9.09218e-07
9.33891e-07
4.85285e-07
5.19528e-07
5.20981e-07
9.35555e-07
9.45394e-07
9.67292e-07
5.34119e-07
5.33821e-07
5.70691e-07
5.68181e-07
9.42592e-07
9.63936e-07
5.34674e-07
5.32587e-07
5.69212e-07
5.67856e-07
5.33832e-07
5.6598e-07
5.6997e-07
9.43011e-07
9.66055e-07
5.33109e-07
5.67449e-07
5.69736e-07
9.67085e-07
9.75199e-07
9.93964e-07
5.82471e-07
5.79768e-07
6.1704e-07
6.14614e-07
9.72175e-07
9.93245e-07
5.80503e-07
5.79469e-07
6.14322e-07
6.14069e-07
5.81541e-07
6.12163e-07
6.15236e-07
9.74253e-07
9.93826e-07
5.81397e-07
6.13899e-07
6.15244e-07
9.91486e-07
1.00107e-06
1.01655e-06
6.28236e-07
6.25948e-07
6.59253e-07
6.57063e-07
1.00085e-06
1.01771e-06
6.25512e-07
6.2531e-07
6.56372e-07
6.5654e-07
6.26404e-07
6.56412e-07
6.57386e-07
1.00106e-06
1.01735e-06
6.26487e-07
6.56796e-07
6.57874e-07
1.01553e-06
1.02287e-06
1.0416e-06
6.68767e-07
6.66629e-07
6.99529e-07
6.97994e-07
1.0242e-06
1.04311e-06
6.65791e-07
6.6628e-07
6.96615e-07
6.98294e-07
6.66651e-07
6.97718e-07
6.96746e-07
1.02389e-06
1.04306e-06
6.67245e-07
6.98187e-07
6.97252e-07
1.0417e-06
1.05004e-06
1.07382e-06
7.10945e-07
7.09733e-07
7.43635e-07
7.43129e-07
1.05151e-06
1.07464e-06
7.08318e-07
7.10185e-07
7.41912e-07
7.43828e-07
7.08301e-07
7.43019e-07
7.42114e-07
1.05145e-06
1.07458e-06
7.08676e-07
7.43341e-07
7.42192e-07
1.07381e-06
1.08014e-06
1.08343e-06
7.52696e-07
7.52323e-07
7.69676e-07
7.69519e-07
1.08082e-06
1.08366e-06
7.51234e-07
7.53027e-07
7.68779e-07
7.69932e-07
7.51657e-07
7.69773e-07
7.69885e-07
1.08077e-06
1.08366e-06
7.51671e-07
7.69827e-07
7.69773e-07
1.08418e-06
1.08493e-06
1.06867e-06
7.72039e-07
7.71875e-07
7.74239e-07
7.73987e-07
1.08516e-06
1.06864e-06
7.71212e-07
7.72175e-07
7.73469e-07
7.74049e-07
7.72427e-07
7.74066e-07
7.74615e-07
1.08514e-06
1.06861e-06
7.72312e-07
7.74157e-07
7.74548e-07
1.06943e-06
1.06932e-06
1.04819e-06
7.7416e-07
7.739e-07
7.72403e-07
7.72114e-07
1.06929e-06
1.04793e-06
7.73401e-07
7.73931e-07
7.71777e-07
7.72023e-07
7.7452e-07
7.71974e-07
7.72551e-07
1.06925e-06
1.04797e-06
7.74459e-07
7.72102e-07
7.725e-07
1.04851e-06
1.04908e-06
1.04533e-06
7.7271e-07
7.72412e-07
7.82836e-07
7.82582e-07
1.04882e-06
1.04505e-06
7.72117e-07
7.72337e-07
7.8237e-07
7.82607e-07
7.72771e-07
7.82354e-07
7.8273e-07
1.04887e-06
1.04522e-06
7.72714e-07
7.82512e-07
7.82626e-07
1.04535e-06
1.04938e-06
1.06705e-06
7.8894e-07
7.88721e-07
8.14667e-07
8.14575e-07
1.04912e-06
1.06688e-06
7.88525e-07
7.88771e-07
8.14386e-07
8.14681e-07
7.88832e-07
8.14349e-07
8.14625e-07
1.04929e-06
1.0671e-06
7.88709e-07
8.14499e-07
8.14455e-07
1.06706e-06
1.07452e-06
1.10575e-06
8.24657e-07
8.24589e-07
8.57568e-07
8.57553e-07
1.07438e-06
1.10565e-06
8.24402e-07
8.24699e-07
8.57374e-07
8.57655e-07
8.24656e-07
8.57374e-07
8.57631e-07
1.07458e-06
1.10584e-06
8.24489e-07
8.57501e-07
8.57485e-07
1.1058e-06
1.1162e-06
1.15839e-06
8.69708e-07
8.69702e-07
9.05955e-07
9.05971e-07
1.11611e-06
1.1583e-06
8.69535e-07
8.69797e-07
9.05816e-07
9.06041e-07
8.69781e-07
9.05796e-07
9.06042e-07
1.11628e-06
1.15845e-06
8.69641e-07
9.05915e-07
9.05918e-07
1.15847e-06
1.16919e-06
1.20191e-06
9.16824e-07
9.16843e-07
9.43119e-07
9.43145e-07
1.1691e-06
1.20182e-06
9.16698e-07
9.16907e-07
9.43004e-07
9.43195e-07
9.16913e-07
9.4297e-07
9.43206e-07
1.16924e-06
1.20195e-06
9.16793e-07
9.43085e-07
9.43092e-07
1.20199e-06
1.2098e-06
1.228e-06
9.49719e-07
9.49745e-07
9.6393e-07
9.63956e-07
1.20971e-06
1.22791e-06
9.4961e-07
9.49793e-07
9.63818e-07
9.64001e-07
9.49806e-07
9.6379e-07
9.64014e-07
1.20984e-06
1.22803e-06
9.49693e-07
9.63897e-07
9.63904e-07
1.22808e-06
1.2331e-06
1.24089e-06
9.67133e-07
9.67157e-07
9.73491e-07
9.73514e-07
1.23303e-06
1.24081e-06
9.67024e-07
9.67204e-07
9.73379e-07
9.73563e-07
9.67218e-07
9.73359e-07
9.73577e-07
1.23314e-06
1.24093e-06
9.67109e-07
9.73461e-07
9.73469e-07
1.24097e-06
1.2442e-06
1.2464e-06
9.74817e-07
9.74839e-07
9.77364e-07
9.77389e-07
1.24412e-06
1.24632e-06
9.74708e-07
9.74889e-07
9.77254e-07
9.77437e-07
9.74905e-07
9.77241e-07
9.77452e-07
1.24424e-06
1.24644e-06
9.74797e-07
9.77338e-07
9.77346e-07
1.24649e-06
1.24889e-06
1.2487e-06
9.77888e-07
9.77913e-07
9.78872e-07
9.789e-07
1.24882e-06
1.24863e-06
9.77781e-07
9.77961e-07
9.78763e-07
9.78944e-07
9.77978e-07
9.78752e-07
9.78961e-07
1.24893e-06
1.24874e-06
9.77872e-07
9.78847e-07
9.78856e-07
1.24879e-06
1.25085e-06
1.24935e-06
9.79053e-07
9.79081e-07
9.79305e-07
9.79333e-07
1.25079e-06
1.24928e-06
9.78947e-07
9.79125e-07
9.79197e-07
9.79376e-07
9.79143e-07
9.79184e-07
9.79396e-07
1.25089e-06
1.24939e-06
9.79039e-07
9.79281e-07
9.7929e-07
1.24944e-06
1.25137e-06
1.24925e-06
9.79318e-07
9.79346e-07
9.79275e-07
9.79302e-07
1.2513e-06
1.24917e-06
9.7921e-07
9.79389e-07
9.79166e-07
9.79345e-07
9.79409e-07
9.79153e-07
9.79366e-07
1.25141e-06
1.24929e-06
9.79303e-07
9.79252e-07
9.7926e-07
1.24934e-06
1.25119e-06
1.24927e-06
9.79261e-07
9.79289e-07
9.79318e-07
9.79347e-07
1.25113e-06
1.2492e-06
9.79153e-07
9.79332e-07
9.79209e-07
9.79388e-07
9.79353e-07
9.79197e-07
9.79408e-07
1.25124e-06
1.24931e-06
9.79247e-07
9.79295e-07
9.79302e-07
1.24936e-06
1.25133e-06
1.24945e-06
9.79356e-07
9.79385e-07
9.79372e-07
9.79399e-07
1.25126e-06
1.24938e-06
9.79248e-07
9.79426e-07
9.79262e-07
9.79441e-07
9.79447e-07
9.7925e-07
9.7946e-07
1.25137e-06
1.24949e-06
9.7934e-07
9.79347e-07
9.79355e-07
1.24954e-06
1.25143e-06
1.2492e-06
9.79349e-07
9.79376e-07
9.79304e-07
9.79332e-07
1.25136e-06
1.24913e-06
9.79241e-07
9.79418e-07
9.79194e-07
9.79374e-07
9.79438e-07
9.79182e-07
9.79394e-07
1.25147e-06
1.24925e-06
9.79332e-07
9.79281e-07
9.79289e-07
1.2493e-06
1.25121e-06
1.24946e-06
9.79303e-07
9.79331e-07
9.79341e-07
9.7937e-07
1.25115e-06
1.24939e-06
9.79193e-07
9.79373e-07
9.79231e-07
9.79412e-07
9.79394e-07
9.7922e-07
9.79432e-07
1.25125e-06
1.24951e-06
9.79289e-07
9.7932e-07
9.79326e-07
1.24956e-06
1.25149e-06
1.24931e-06
9.79349e-07
9.79377e-07
9.79318e-07
9.79345e-07
1.25142e-06
1.24923e-06
9.7924e-07
9.79419e-07
9.79208e-07
9.79387e-07
9.79439e-07
9.79195e-07
9.79408e-07
1.25153e-06
1.24934e-06
9.79332e-07
9.79293e-07
9.793e-07
1.24938e-06
1.25126e-06
1.2494e-06
9.79309e-07
9.79337e-07
9.79333e-07
9.79362e-07
1.25119e-06
1.24934e-06
9.79199e-07
9.79378e-07
9.79223e-07
9.79403e-07
9.79399e-07
9.79211e-07
9.79424e-07
1.25129e-06
1.24945e-06
9.79293e-07
9.79312e-07
9.7932e-07
1.2495e-06
1.25142e-06
1.24928e-06
9.79338e-07
9.79366e-07
9.7932e-07
9.79347e-07
1.25136e-06
1.2492e-06
9.79229e-07
9.79407e-07
9.79207e-07
9.79386e-07
9.79428e-07
9.79197e-07
9.79409e-07
1.25147e-06
1.24931e-06
9.79324e-07
9.79296e-07
9.79304e-07
1.24936e-06
1.25125e-06
1.24942e-06
9.79318e-07
9.79346e-07
9.79326e-07
9.79354e-07
1.25118e-06
1.24935e-06
9.79206e-07
9.79385e-07
9.79215e-07
9.79395e-07
9.79408e-07
9.79203e-07
9.79416e-07
1.25129e-06
1.24946e-06
9.79303e-07
9.793e-07
9.79309e-07
1.24951e-06
1.25142e-06
1.24927e-06
9.79325e-07
9.79352e-07
9.79325e-07
9.79352e-07
1.25134e-06
1.24921e-06
9.79216e-07
9.79394e-07
9.79214e-07
9.79393e-07
9.79415e-07
9.79202e-07
9.79415e-07
1.25145e-06
1.24932e-06
9.79309e-07
9.79302e-07
9.7931e-07
1.24937e-06
1.25129e-06
1.24936e-06
9.79325e-07
9.79353e-07
9.79322e-07
9.79348e-07
1.25124e-06
1.24928e-06
9.79214e-07
9.79393e-07
9.79213e-07
9.79391e-07
9.79415e-07
9.79199e-07
9.79412e-07
1.25134e-06
1.24938e-06
9.79311e-07
9.79297e-07
9.79306e-07
1.24944e-06
1.25133e-06
1.24938e-06
9.79321e-07
9.79347e-07
9.79325e-07
9.79354e-07
1.25125e-06
1.24932e-06
9.79213e-07
9.79391e-07
9.79211e-07
9.79393e-07
9.79412e-07
9.79201e-07
9.79415e-07
1.25135e-06
1.24944e-06
9.79306e-07
9.79301e-07
9.7931e-07
1.24948e-06
1.25139e-06
1.24931e-06
9.79323e-07
9.79351e-07
9.79321e-07
9.7935e-07
1.25133e-06
1.24925e-06
9.79211e-07
9.79391e-07
9.79212e-07
9.79392e-07
9.79413e-07
9.79201e-07
9.79414e-07
1.25143e-06
1.24937e-06
9.79307e-07
9.79299e-07
9.79307e-07
1.24942e-06
1.25133e-06
1.24931e-06
9.79324e-07
9.79353e-07
9.79318e-07
9.79347e-07
1.25128e-06
1.24924e-06
9.79214e-07
9.79394e-07
9.79209e-07
9.79388e-07
9.79417e-07
9.79197e-07
9.7941e-07
1.25139e-06
1.24934e-06
9.7931e-07
9.79294e-07
9.79303e-07
1.2494e-06
1.25129e-06
1.24938e-06
9.79318e-07
9.79348e-07
9.79323e-07
9.79348e-07
1.25124e-06
1.24927e-06
9.7921e-07
9.7939e-07
9.79211e-07
9.7939e-07
9.79413e-07
9.79197e-07
9.79411e-07
1.25134e-06
1.24938e-06
9.79306e-07
9.79295e-07
9.79306e-07
1.24943e-06
1.25135e-06
1.24937e-06
9.79322e-07
9.79347e-07
9.79321e-07
9.79351e-07
1.25124e-06
1.24933e-06
9.79211e-07
9.79389e-07
9.79208e-07
9.79391e-07
9.79408e-07
9.79203e-07
9.79422e-07
1.25134e-06
1.24944e-06
9.79302e-07
9.79299e-07
9.79314e-07
1.24949e-06
1.25138e-06
1.24932e-06
9.79321e-07
9.79351e-07
9.79319e-07
9.7935e-07
1.25131e-06
1.24931e-06
9.7921e-07
9.79392e-07
9.79207e-07
9.79391e-07
9.79424e-07
9.79191e-07
9.79406e-07
1.25141e-06
1.24942e-06
9.79316e-07
9.79288e-07
9.793e-07
1.24941e-06
1.25134e-06
1.24931e-06
9.79321e-07
9.79352e-07
9.79318e-07
9.79346e-07
1.25134e-06
1.24922e-06
9.79208e-07
9.79392e-07
9.79207e-07
9.79388e-07
9.79411e-07
9.79193e-07
9.79413e-07
1.25143e-06
1.24936e-06
9.79305e-07
9.7929e-07
9.79307e-07
1.2494e-06
1.25131e-06
1.24933e-06
9.79321e-07
9.7935e-07
9.79316e-07
9.79344e-07
1.25126e-06
1.24922e-06
9.79209e-07
9.79392e-07
9.79205e-07
9.79385e-07
9.79415e-07
9.79194e-07
9.7941e-07
1.25139e-06
1.24935e-06
9.79309e-07
9.79291e-07
9.79304e-07
1.24938e-06
1.25131e-06
1.24939e-06
9.7932e-07
9.79347e-07
9.79319e-07
9.79345e-07
1.25121e-06
1.2493e-06
9.79209e-07
9.79389e-07
9.79206e-07
9.79384e-07
9.79412e-07
9.79194e-07
9.7941e-07
1.25135e-06
1.24937e-06
9.79305e-07
9.79289e-07
9.79305e-07
1.2495e-06
1.25136e-06
1.24933e-06
9.79321e-07
9.79348e-07
9.79312e-07
9.79342e-07
1.25128e-06
1.24928e-06
9.79209e-07
9.79387e-07
9.79202e-07
9.79382e-07
9.79416e-07
9.79192e-07
9.79406e-07
1.25137e-06
1.24931e-06
9.79311e-07
9.79284e-07
9.79297e-07
1.24937e-06
1.25134e-06
1.24939e-06
9.79318e-07
9.79344e-07
9.79314e-07
9.79343e-07
1.25125e-06
1.24935e-06
9.79208e-07
9.79385e-07
9.79204e-07
9.79385e-07
9.7941e-07
9.79195e-07
9.79407e-07
1.25129e-06
1.24945e-06
9.79303e-07
9.7929e-07
9.793e-07
1.24944e-06
1.25137e-06
1.24933e-06
9.79316e-07
9.79347e-07
9.79305e-07
9.79334e-07
1.25134e-06
1.24924e-06
9.79208e-07
9.79388e-07
9.79196e-07
9.79378e-07
9.79412e-07
9.79187e-07
9.79404e-07
1.2514e-06
1.24941e-06
9.79303e-07
9.79283e-07
9.79299e-07
1.24951e-06
1.25138e-06
1.24925e-06
9.79315e-07
9.79345e-07
9.793e-07
9.79329e-07
1.2513e-06
1.24918e-06
9.79207e-07
9.79389e-07
9.79189e-07
9.79374e-07
9.79413e-07
9.7918e-07
9.79398e-07
1.25144e-06
1.24935e-06
9.79307e-07
9.79277e-07
9.79288e-07
1.24941e-06
1.25125e-06
1.24936e-06
9.79311e-07
9.79341e-07
9.793e-07
9.79331e-07
1.25118e-06
1.24931e-06
9.792e-07
9.79385e-07
9.79189e-07
9.79372e-07
9.79411e-07
9.79182e-07
9.79396e-07
1.25135e-06
1.2494e-06
9.79302e-07
9.79277e-07
9.79285e-07
1.24935e-06
1.25133e-06
1.24934e-06
9.79315e-07
9.79346e-07
9.79295e-07
9.79328e-07
1.25128e-06
1.24929e-06
9.79203e-07
9.79387e-07
9.79184e-07
9.79366e-07
9.79408e-07
9.79178e-07
9.79393e-07
1.25142e-06
1.24934e-06
9.79298e-07
9.7927e-07
9.79284e-07
1.24942e-06
1.25135e-06
1.24931e-06
9.79315e-07
9.79348e-07
9.79293e-07
9.79326e-07
1.25131e-06
1.24923e-06
9.79205e-07
9.79386e-07
9.79181e-07
9.79364e-07
9.79411e-07
9.79171e-07
9.79386e-07
1.25136e-06
1.24935e-06
9.79302e-07
9.79268e-07
9.79278e-07
1.24942e-06
1.2513e-06
1.24933e-06
9.79316e-07
9.79349e-07
9.79287e-07
9.79322e-07
1.25123e-06
1.24928e-06
9.79205e-07
9.79386e-07
9.79179e-07
9.79361e-07
9.79413e-07
9.79165e-07
9.79377e-07
1.25133e-06
1.2494e-06
9.79301e-07
9.79266e-07
9.79271e-07
1.24937e-06
1.25131e-06
1.24935e-06
9.7932e-07
9.79355e-07
9.7928e-07
9.79312e-07
1.25127e-06
1.24928e-06
9.79211e-07
9.79391e-07
9.79172e-07
9.79354e-07
9.79412e-07
9.79159e-07
9.79372e-07
1.25137e-06
1.24943e-06
9.79305e-07
9.79256e-07
9.79259e-07
1.24935e-06
1.25133e-06
1.24938e-06
9.7932e-07
9.79351e-07
9.79278e-07
9.7931e-07
1.25126e-06
1.24933e-06
9.79214e-07
9.79396e-07
9.79165e-07
9.79346e-07
9.79413e-07
9.79154e-07
9.79367e-07
1.2514e-06
1.24942e-06
9.79303e-07
9.7925e-07
9.79254e-07
1.24941e-06
1.25138e-06
1.24935e-06
9.79332e-07
9.79363e-07
9.79264e-07
9.79292e-07
1.25134e-06
1.24922e-06
9.7922e-07
9.79402e-07
9.79158e-07
9.79337e-07
9.79419e-07
9.79141e-07
9.79359e-07
1.25144e-06
1.24934e-06
9.79305e-07
9.7924e-07
9.79247e-07
1.2495e-06
1.25138e-06
1.24931e-06
9.79338e-07
9.79367e-07
9.79255e-07
9.79282e-07
1.25128e-06
1.24917e-06
9.79229e-07
9.79409e-07
9.79149e-07
9.79328e-07
9.79429e-07
9.7913e-07
9.79348e-07
1.25138e-06
1.24932e-06
9.79318e-07
9.79226e-07
9.79233e-07
1.24951e-06
1.25136e-06
1.24925e-06
9.7935e-07
9.79375e-07
9.79242e-07
9.79272e-07
1.25118e-06
1.24926e-06
9.79245e-07
9.79422e-07
9.79134e-07
9.79316e-07
9.79442e-07
9.7912e-07
9.79335e-07
1.25132e-06
1.24937e-06
9.79329e-07
9.79217e-07
9.7922e-07
1.24946e-06
1.25128e-06
1.24931e-06
9.79368e-07
9.79395e-07
9.79231e-07
9.79259e-07
1.25124e-06
1.24929e-06
9.79262e-07
9.79442e-07
9.79125e-07
9.79306e-07
9.79462e-07
9.79107e-07
9.7932e-07
1.25135e-06
1.24939e-06
9.79346e-07
9.79206e-07
9.79209e-07
1.24942e-06
1.25129e-06
1.24936e-06
9.794e-07
9.79429e-07
9.79221e-07
9.79245e-07
1.25131e-06
1.24923e-06
9.79291e-07
9.79475e-07
9.79115e-07
9.79296e-07
9.79491e-07
9.79095e-07
9.79309e-07
1.25141e-06
1.24936e-06
9.79378e-07
9.79195e-07
9.79196e-07
1.2494e-06
1.25136e-06
1.24908e-06
9.79444e-07
9.79468e-07
9.78815e-07
9.7884e-07
1.25127e-06
1.24898e-06
9.79336e-07
9.79517e-07
9.78704e-07
9.78883e-07
9.79529e-07
9.78693e-07
9.78903e-07
1.25137e-06
1.24912e-06
9.79416e-07
9.78779e-07
9.78781e-07
1.24919e-06
1.25099e-06
1.22906e-06
9.79138e-07
9.79162e-07
9.56488e-07
9.56509e-07
1.25089e-06
1.22903e-06
9.79024e-07
9.79209e-07
9.56453e-07
9.56474e-07
9.79227e-07
9.56499e-07
9.56548e-07
1.251e-06
1.22908e-06
9.79102e-07
9.56508e-07
9.56504e-07
1.22911e-06
1.20622e-06
9.21156e-07
9.21173e-07
1.20621e-06
9.21145e-07
9.21137e-07
4.18938e-07
4.18914e-07
4.18954e-07
9.2121e-07
1.20624e-06
9.21197e-07
2.59591e-08
4.25407e-09
1.68759e-08
1.68907e-08
1.48751e-09
4.26924e-09
1.10308e-08
9.38582e-09
1.51355e-09
4.24613e-09
9.53872e-09
4.69095e-09
5.16518e-09
7.70959e-09
3.76059e-09
7.37043e-09
1.64472e-07
6.0259e-09
2.60394e-07
1.64498e-06
3.24038e-06
7.49192e-09
1.65148e-07
5.97458e-09
2.6022e-07
9.52183e-09
9.57191e-09
9.47397e-09
9.33974e-09
9.41323e-09
9.4861e-09
9.36911e-09
1.43537e-09
8.62083e-08
4.48606e-09
4.69711e-09
1.45654e-09
6.45956e-08
4.43236e-09
1.63582e-06
3.21248e-06
1.52373e-09
5.94853e-09
8.47832e-08
5.34511e-09
1.53553e-09
5.90352e-09
6.12914e-08
2.17303e-07
2.15127e-07
4.78575e-09
1.86911e-07
1.84618e-07
1.72315e-08
4.66638e-07
1.12549e-08
6.8444e-07
7.19471e-06
1.01661e-05
1.77551e-08
4.6667e-07
1.13081e-08
6.84495e-07
9.4356e-09
9.51418e-09
9.39129e-09