/*--------------------------------*- C++ -*----------------------------------*\
| =========                 |                                                 |
| \\      /  F ield         | OpenFOAM: The Open Source CFD Toolbox           |
|  \\    /   O peration     | Version:  v1906                                 |
|   \\  /    A nd           | Web:      www.OpenFOAM.com                      |
|    \\/     M anipulation  |                                                 |
\*---------------------------------------------------------------------------*/
FoamFile
{
    version     2.0;
    format      ascii;
    class       volScalarField;
    location    "212.5";
    object      k;
}
// * * * * * * * * * * * * * * * * * * * * * * * * * * * * * * * * * * * * * //

dimensions      [0 2 -2 0 0 0 0];


internalField   nonuniform List<scalar> 
171728
(
1.24472e-06
3.60811e-07
3.31269e-07
3.50536e-07
1.23452e-06
3.46347e-07
3.34539e-07
3.34454e-07
1.25635e-06
3.34354e-07
3.47941e-07
3.2176e-07
1.27911e-06
3.23873e-07
3.727e-07
3.12572e-07
1.30287e-06
3.14586e-07
4.11521e-07
3.05517e-07
1.32837e-06
3.09865e-07
4.74856e-07
2.97768e-07
1.35386e-06
3.07111e-07
5.22508e-07
2.89395e-07
1.38074e-06
3.04451e-07
5.18592e-07
2.81424e-07
1.40828e-06
3.04517e-07
4.20008e-07
2.74471e-07
1.43672e-06
3.06392e-07
3.42484e-07
2.67224e-07
1.46553e-06
3.08832e-07
3.14801e-07
2.57504e-07
1.49331e-06
3.13521e-07
3.1695e-07
2.46819e-07
1.52216e-06
3.21439e-07
3.20937e-07
2.39534e-07
1.55345e-06
3.3268e-07
3.29106e-07
2.34923e-07
1.5855e-06
3.4587e-07
3.42635e-07
2.34551e-07
1.6183e-06
3.63458e-07
3.61213e-07
2.40955e-07
1.65271e-06
3.87039e-07
3.87218e-07
2.54417e-07
1.68496e-06
4.16958e-07
4.17414e-07
2.74491e-07
1.71947e-06
4.59305e-07
4.63632e-07
3.31412e-07
1.75376e-06
5.32193e-07
5.27293e-07
4.19086e-07
1.78392e-06
6.31957e-07
6.3643e-07
5.31692e-07
1.82373e-06
7.51031e-07
7.60223e-07
7.84764e-07
1.85187e-06
9.05643e-07
9.29673e-07
1.18705e-06
1.89275e-06
1.2475e-06
1.24027e-06
2.15413e-06
1.9301e-06
1.52334e-06
1.54857e-06
2.84022e-06
1.97383e-06
1.93899e-06
1.95844e-06
4.14941e-06
2.02852e-06
2.55111e-06
2.54286e-06
5.85718e-06
2.0848e-06
3.17377e-06
3.2254e-06
8.2136e-06
2.15915e-06
3.99354e-06
4.01841e-06
1.04988e-05
2.23605e-06
4.9384e-06
4.95774e-06
1.31394e-05
2.34158e-06
5.91683e-06
6.01043e-06
1.56487e-05
2.46248e-06
7.20906e-06
7.15739e-06
1.80784e-05
2.61395e-06
8.47818e-06
8.49558e-06
2.02538e-05
2.80191e-06
9.99921e-06
9.91353e-06
2.23418e-05
3.02208e-06
1.15671e-05
1.14997e-05
2.41951e-05
3.32006e-06
1.33349e-05
1.30978e-05
2.5905e-05
3.656e-06
1.50249e-05
1.48306e-05
2.74797e-05
4.0737e-06
1.69486e-05
1.66112e-05
2.89188e-05
4.53111e-06
1.85604e-05
1.84766e-05
3.029e-05
5.08687e-06
2.03824e-05
2.02762e-05
3.15366e-05
5.72957e-06
2.21198e-05
2.21582e-05
3.29047e-05
6.46154e-06
2.39104e-05
2.40306e-05
3.40246e-05
7.39183e-06
2.58873e-05
2.58829e-05
3.51094e-05
8.23803e-06
2.74655e-05
2.74801e-05
3.60381e-05
9.70978e-06
3.00564e-05
3.00978e-05
3.80527e-05
1.14299e-05
3.22339e-05
3.22562e-05
3.94911e-05
1.21223e-05
3.24597e-05
3.2475e-05
3.93795e-05
1.17975e-05
3.13648e-05
3.13756e-05
3.80585e-05
1.1126e-05
3.04672e-05
3.04777e-05
3.69647e-05
1.16372e-05
3.12788e-05
3.12873e-05
3.74306e-05
1.40187e-05
3.34052e-05
3.34111e-05
3.88908e-05
1.80108e-05
3.67721e-05
3.67762e-05
4.16284e-05
2.26788e-05
4.01073e-05
4.01107e-05
4.44208e-05
2.62377e-05
4.23175e-05
4.23203e-05
4.62557e-05
2.82613e-05
4.34494e-05
4.34518e-05
4.71899e-05
2.91881e-05
4.39299e-05
4.39319e-05
4.75784e-05
2.95621e-05
4.41222e-05
4.41238e-05
4.77396e-05
2.9692e-05
4.41872e-05
4.41889e-05
4.77986e-05
2.9711e-05
4.41874e-05
4.41892e-05
4.78083e-05
2.97156e-05
4.41861e-05
4.41879e-05
4.77873e-05
2.97226e-05
4.41967e-05
4.41983e-05
4.78159e-05
2.9719e-05
4.41891e-05
4.41908e-05
4.77969e-05
2.97201e-05
4.41924e-05
4.41944e-05
4.78046e-05
2.97196e-05
4.41907e-05
4.41922e-05
4.78047e-05
2.97196e-05
4.41921e-05
4.4194e-05
4.78024e-05
2.97194e-05
4.41907e-05
4.41926e-05
4.78026e-05
2.97194e-05
4.41917e-05
4.41931e-05
4.7807e-05
2.97193e-05
4.41914e-05
4.41933e-05
4.77952e-05
2.97193e-05
4.41912e-05
4.41928e-05
4.78111e-05
2.97192e-05
4.41916e-05
4.41935e-05
4.78043e-05
2.97193e-05
4.41917e-05
4.41934e-05
4.77951e-05
2.97192e-05
4.41912e-05
4.41927e-05
4.78014e-05
2.97193e-05
4.41911e-05
4.41929e-05
4.78102e-05
2.97193e-05
4.41925e-05
4.4194e-05
4.78069e-05
2.97192e-05
4.41912e-05
4.41928e-05
4.77959e-05
2.97193e-05
4.41914e-05
4.41929e-05
4.77962e-05
2.97195e-05
4.41917e-05
4.41932e-05
4.78071e-05
2.97196e-05
4.41918e-05
4.41934e-05
4.78069e-05
2.97194e-05
4.41917e-05
4.41927e-05
4.77952e-05
2.97194e-05
4.41926e-05
4.41938e-05
4.78095e-05
2.97192e-05
4.41919e-05
4.41932e-05
4.78079e-05
2.97191e-05
4.41913e-05
4.41928e-05
4.77945e-05
2.97191e-05
4.41916e-05
4.41931e-05
4.78024e-05
2.97191e-05
4.41917e-05
4.41927e-05
4.78107e-05
2.97191e-05
4.41915e-05
4.41929e-05
4.78044e-05
2.97191e-05
4.41915e-05
4.41933e-05
4.77956e-05
2.9719e-05
4.41915e-05
4.41931e-05
4.77975e-05
2.9719e-05
4.4192e-05
4.41934e-05
4.78054e-05
2.97191e-05
4.41919e-05
4.41935e-05
4.78089e-05
2.97192e-05
4.41921e-05
4.41934e-05
4.78051e-05
2.97193e-05
4.41931e-05
4.41945e-05
4.77992e-05
2.97196e-05
4.41941e-05
4.41958e-05
4.77967e-05
2.97195e-05
4.41956e-05
4.41972e-05
4.77967e-05
2.97085e-05
4.41866e-05
4.41878e-05
4.77927e-05
2.913e-05
4.28828e-05
4.28822e-05
4.72247e-05
3.43047e-07
3.44115e-07
3.46063e-07
3.46709e-07
3.43382e-07
3.44431e-07
1.27923e-06
1.28707e-06
1.29563e-06
1.28449e-06
3.3834e-07
3.47521e-07
3.45139e-07
3.19694e-07
3.39169e-07
3.53059e-07
3.41091e-07
3.32116e-07
3.68253e-07
3.68363e-07
3.56772e-07
3.58101e-07
3.44158e-07
3.3158e-07
3.66085e-07
3.65453e-07
3.5445e-07
3.54956e-07
3.90492e-07
3.49715e-07
3.79226e-07
3.42371e-07
3.27675e-07
3.6085e-07
3.32917e-07
3.50419e-07
3.37282e-07
3.30181e-07
3.20546e-07
3.53349e-07
3.54393e-07
3.43882e-07
3.43409e-07
3.28978e-07
3.17226e-07
3.50931e-07
3.51806e-07
3.38387e-07
3.43013e-07
3.76006e-07
3.37049e-07
3.67015e-07
3.24863e-07
3.14208e-07
3.47377e-07
3.4403e-07
3.39515e-07
3.24013e-07
3.18144e-07
3.06474e-07
3.41011e-07
3.4039e-07
3.33697e-07
3.33225e-07
3.14617e-07
3.0417e-07
3.32882e-07
3.40204e-07
3.14263e-07
3.32553e-07
3.64362e-07
3.26474e-07
3.57092e-07
3.12013e-07
3.05431e-07
3.37039e-07
3.65997e-07
3.30178e-07
3.14243e-07
3.0387e-07
2.92284e-07
3.31473e-07
3.31192e-07
3.24629e-07
3.24427e-07
3.01952e-07
2.93963e-07
3.08573e-07
3.3031e-07
2.95629e-07
3.2367e-07
3.55008e-07
3.16357e-07
3.49806e-07
3.04085e-07
3.0312e-07
3.28265e-07
3.99001e-07
3.22685e-07
3.07016e-07
2.89479e-07
2.7852e-07
3.22448e-07
3.22251e-07
3.16737e-07
3.16512e-07
2.92219e-07
2.86634e-07
2.92549e-07
3.21689e-07
2.85994e-07
3.16714e-07
3.48562e-07
3.10826e-07
3.4426e-07
3.02424e-07
3.05501e-07
3.20716e-07
4.58351e-07
3.15635e-07
2.99507e-07
2.76694e-07
2.71761e-07
3.1524e-07
3.14908e-07
3.11646e-07
3.11048e-07
2.85244e-07
2.80694e-07
2.84789e-07
3.15342e-07
2.83006e-07
3.12099e-07
3.42249e-07
3.07748e-07
3.36339e-07
3.04749e-07
3.05891e-07
3.14315e-07
5.15155e-07
3.10464e-07
2.91143e-07
2.70635e-07
2.67017e-07
3.10741e-07
3.09802e-07
3.08189e-07
3.07418e-07
2.7941e-07
2.74625e-07
2.82778e-07
3.11079e-07
2.81154e-07
3.08451e-07
3.3437e-07
3.05037e-07
3.32566e-07
3.0401e-07
2.96417e-07
3.09078e-07
5.25622e-07
3.06153e-07
2.83055e-07
2.65825e-07
2.60207e-07
3.07487e-07
3.0661e-07
3.05427e-07
3.04611e-07
2.73154e-07
2.68239e-07
2.80348e-07
3.07684e-07
2.77513e-07
3.06004e-07
3.32676e-07
3.04301e-07
3.35426e-07
2.92261e-07
2.72151e-07
3.0549e-07
4.44555e-07
3.0522e-07
2.75869e-07
2.58591e-07
2.51841e-07
3.05252e-07
3.04596e-07
3.05534e-07
3.0514e-07
2.67012e-07
2.6311e-07
2.76578e-07
3.05879e-07
2.75845e-07
3.06148e-07
3.37448e-07
3.06046e-07
3.43645e-07
2.69265e-07
2.59968e-07
3.05408e-07
3.57994e-07
3.06966e-07
2.68945e-07
2.50317e-07
2.44538e-07
3.05865e-07
3.05793e-07
3.08405e-07
3.09525e-07
2.62037e-07
2.58449e-07
2.75914e-07
3.0657e-07
2.77141e-07
3.08329e-07
3.45333e-07
3.08318e-07
3.48475e-07
2.58174e-07
2.53949e-07
3.07584e-07
3.16905e-07
3.10275e-07
2.59576e-07
2.43218e-07
2.38438e-07
3.09325e-07
3.10932e-07
3.13308e-07
3.16479e-07
2.57508e-07
2.54445e-07
2.78201e-07
3.09377e-07
2.82221e-07
3.1317e-07
3.48778e-07
3.12473e-07
3.46875e-07
2.53031e-07
2.48703e-07
3.11118e-07
3.15536e-07
3.14101e-07
2.48849e-07
2.3745e-07
2.33594e-07
3.14796e-07
3.17994e-07
3.19804e-07
3.24329e-07
2.53613e-07
2.51788e-07
2.83319e-07
3.1426e-07
2.88309e-07
3.19964e-07
3.43081e-07
3.18934e-07
3.29557e-07
2.47442e-07
2.44755e-07
3.15474e-07
3.20266e-07
3.20913e-07
2.40235e-07
2.33122e-07
2.30383e-07
3.21946e-07
3.26958e-07
3.2901e-07
3.34835e-07
2.5152e-07
2.51361e-07
2.90025e-07
3.22081e-07
2.95826e-07
3.29583e-07
3.25234e-07
3.29959e-07
3.17718e-07
2.44458e-07
2.44143e-07
3.22817e-07
3.26527e-07
3.29561e-07
2.35165e-07
2.30416e-07
2.30898e-07
3.31787e-07
3.37994e-07
3.42052e-07
3.45235e-07
2.51784e-07
2.51315e-07
2.98729e-07
3.32942e-07
3.09484e-07
3.42888e-07
3.17447e-07
3.42229e-07
3.18086e-07
2.44439e-07
2.46316e-07
3.32479e-07
3.39041e-07
3.41058e-07
2.33897e-07
2.31882e-07
2.35673e-07
3.46177e-07
3.48145e-07
3.59564e-07
3.62648e-07
2.51765e-07
2.57283e-07
3.14102e-07
3.46904e-07
3.28374e-07
3.60895e-07
3.18968e-07
3.59383e-07
3.30826e-07
2.47273e-07
2.51248e-07
3.44996e-07
3.56366e-07
3.5908e-07
2.38658e-07
2.37657e-07
2.45031e-07
3.64712e-07
3.67495e-07
3.80138e-07
3.84623e-07
2.59431e-07
2.66179e-07
3.34025e-07
3.66315e-07
3.50081e-07
3.8468e-07
3.367e-07
3.80006e-07
3.5658e-07
2.54135e-07
2.62313e-07
3.64569e-07
3.79401e-07
3.82366e-07
2.50504e-07
2.49672e-07
2.6711e-07
3.87926e-07
3.92352e-07
4.07974e-07
4.12881e-07
2.70811e-07
2.86971e-07
3.57909e-07
3.92325e-07
3.80688e-07
4.11691e-07
3.64941e-07
4.08232e-07
3.8459e-07
2.67768e-07
2.78803e-07
3.89825e-07
4.07077e-07
4.09436e-07
2.68246e-07
2.70472e-07
3.12963e-07
4.149e-07
4.21664e-07
4.53947e-07
4.57811e-07
2.91224e-07
3.33833e-07
3.89159e-07
4.23307e-07
4.25016e-07
4.5929e-07
3.93122e-07
4.52439e-07
4.35768e-07
2.86181e-07
3.30984e-07
4.18204e-07
4.53067e-07
4.57931e-07
3.23654e-07
3.23539e-07
3.71455e-07
4.65871e-07
4.65197e-07
5.07676e-07
5.28374e-07
3.42e-07
4.17979e-07
4.3696e-07
4.70126e-07
4.80169e-07
5.18081e-07
4.44242e-07
5.17972e-07
4.88403e-07
3.38605e-07
3.95217e-07
4.65474e-07
5.12321e-07
5.1442e-07
3.73329e-07
3.99304e-07
5.06428e-07
5.29433e-07
5.43442e-07
5.976e-07
5.95265e-07
4.53366e-07
4.83042e-07
5.03796e-07
5.31605e-07
5.74181e-07
6.10171e-07
5.10708e-07
5.90782e-07
5.80909e-07
4.18805e-07
5.32672e-07
5.38636e-07
6.09602e-07
6.02351e-07
5.06091e-07
5.22565e-07
7.84518e-07
6.07903e-07
6.37994e-07
7.4222e-07
7.24059e-07
5.46927e-07
7.75728e-07
5.83737e-07
6.3747e-07
7.15747e-07
6.97632e-07
6.02207e-07
7.11688e-07
6.73284e-07
5.89561e-07
6.8421e-07
6.2387e-07
6.94371e-07
7.04957e-07
6.8378e-07
9.55692e-07
1.01489e-06
8.06956e-07
7.61258e-07
8.61787e-07
8.49201e-07
7.99561e-07
1.06034e-06
7.84028e-07
7.63701e-07
8.4244e-07
9.20556e-07
7.47044e-07
8.58869e-07
8.82064e-07
7.58706e-07
1.25405e-06
7.75977e-07
9.15922e-07
9.0343e-07
1.18244e-06
1.01698e-06
2.1243e-06
8.78909e-07
8.93485e-07
1.19386e-06
1.18011e-06
1.13578e-06
1.98249e-06
8.59424e-07
9.34546e-07
1.16916e-06
1.11861e-06
8.89635e-07
1.17789e-06
1.10435e-06
1.27075e-06
1.59251e-06
9.13068e-07
1.11268e-06
1.14956e-06
1.69559e-06
2.35223e-06
2.52787e-06
1.25779e-06
1.24676e-06
1.43445e-06
1.41518e-06
2.22493e-06
2.54403e-06
1.22956e-06
1.24525e-06
1.41428e-06
1.50627e-06
1.25453e-06
1.43305e-06
1.41555e-06
1.92754e-06
3.00962e-06
1.2813e-06
1.49657e-06
1.4443e-06
2.81727e-06
2.68683e-06
3.79181e-06
1.52836e-06
1.50946e-06
1.81962e-06
1.81597e-06
2.68683e-06
3.80668e-06
1.51676e-06
1.56086e-06
1.80248e-06
1.83717e-06
1.47775e-06
1.8237e-06
1.82517e-06
3.08273e-06
3.62998e-06
1.51405e-06
1.82344e-06
1.84979e-06
3.79606e-06
4.03876e-06
5.60859e-06
1.9395e-06
1.92697e-06
2.37996e-06
2.38172e-06
4.0904e-06
5.61934e-06
1.91367e-06
1.97382e-06
2.37535e-06
2.40775e-06
1.929e-06
2.39319e-06
2.32497e-06
3.95987e-06
5.68377e-06
1.9595e-06
2.38467e-06
2.36416e-06
5.45041e-06
6.05083e-06
7.69654e-06
2.5371e-06
2.54149e-06
3.01868e-06
2.99613e-06
6.06081e-06
7.73721e-06
2.54268e-06
2.56637e-06
2.99024e-06
3.06362e-06
2.50715e-06
2.99879e-06
2.99414e-06
6.07842e-06
7.80899e-06
2.53879e-06
3.05755e-06
3.03298e-06
7.81895e-06
8.08104e-06
1.00596e-05
3.18237e-06
3.17901e-06
3.7735e-06
3.77395e-06
8.11705e-06
1.00891e-05
3.1476e-06
3.23285e-06
3.79344e-06
3.82432e-06
3.1569e-06
3.78388e-06
3.75953e-06
8.24002e-06
1.00938e-05
3.19436e-06
3.79501e-06
3.78411e-06
9.97881e-06
1.05979e-05
1.26516e-05
4.00462e-06
3.96534e-06
4.67355e-06
4.66832e-06
1.06073e-05
1.26069e-05
4.03074e-06
4.04121e-06
4.62953e-06
4.71579e-06
3.96863e-06
4.68921e-06
4.64984e-06
1.05833e-05
1.27249e-05
4.00398e-06
4.72439e-06
4.69291e-06
1.26441e-05
1.31072e-05
1.50789e-05
4.89853e-06
4.93497e-06
5.68719e-06
5.64497e-06
1.31053e-05
1.50808e-05
4.84644e-06
4.95442e-06
5.71686e-06
5.76016e-06
4.90638e-06
5.64584e-06
5.68442e-06
1.32292e-05
1.51881e-05
4.93524e-06
5.72678e-06
5.70149e-06
1.51351e-05
1.5644e-05
1.76602e-05
5.98626e-06
5.91981e-06
6.89824e-06
6.9215e-06
1.556e-05
1.75897e-05
6.025e-06
6.05578e-06
6.86345e-06
6.88663e-06
5.95831e-06
6.89262e-06
6.86828e-06
1.57074e-05
1.76086e-05
5.98315e-06
6.85186e-06
6.89101e-06
1.75832e-05
1.81185e-05
1.97542e-05
7.17473e-06
7.21256e-06
8.09966e-06
8.11477e-06
1.81209e-05
1.97949e-05
7.14709e-06
7.17264e-06
8.11901e-06
8.22176e-06
7.1787e-06
8.14183e-06
8.13517e-06
1.80791e-05
1.98577e-05
7.19045e-06
8.18204e-06
8.1226e-06
1.9792e-05
2.02447e-05
2.19549e-05
8.48543e-06
8.49487e-06
9.58651e-06
9.64079e-06
2.02676e-05
2.1977e-05
8.47993e-06
8.57049e-06
9.58054e-06
9.5486e-06
8.47468e-06
9.60425e-06
9.55305e-06
2.03281e-05
2.18465e-05
8.46139e-06
9.49316e-06
9.5427e-06
2.18909e-05
2.23708e-05
2.37877e-05
9.90976e-06
9.98732e-06
1.10517e-05
1.1071e-05
2.2403e-05
2.37307e-05
9.93853e-06
9.92888e-06
1.10333e-05
1.11741e-05
9.93793e-06
1.11621e-05
1.10924e-05
2.23051e-05
2.38819e-05
9.92549e-06
1.11532e-05
1.10769e-05
2.37942e-05
2.42359e-05
2.55769e-05
1.14891e-05
1.14794e-05
1.2757e-05
1.27803e-05
2.41535e-05
2.55996e-05
1.14376e-05
1.15555e-05
1.28004e-05
1.27166e-05
1.14558e-05
1.29023e-05
1.26809e-05
2.42684e-05
2.54383e-05
1.14484e-05
1.26426e-05
1.26811e-05
2.55034e-05
2.59322e-05
2.70587e-05
1.31521e-05
1.31754e-05
1.44109e-05
1.42868e-05
2.59797e-05
2.70101e-05
1.32519e-05
1.31467e-05
1.45283e-05
1.44302e-05
1.31416e-05
1.45736e-05
1.44474e-05
2.5846e-05
2.71298e-05
1.31257e-05
1.44305e-05
1.43865e-05
2.71287e-05
2.74365e-05
2.85978e-05
1.48774e-05
1.47254e-05
1.62204e-05
1.62833e-05
2.73816e-05
2.87082e-05
1.49753e-05
1.4836e-05
1.63632e-05
1.61658e-05
1.4876e-05
1.64875e-05
1.62493e-05
2.74693e-05
2.85082e-05
1.4817e-05
1.61174e-05
1.62055e-05
2.85754e-05
2.89151e-05
2.9865e-05
1.66278e-05
1.6781e-05
1.79087e-05
1.8065e-05
2.90448e-05
2.98735e-05
1.68176e-05
1.66645e-05
1.8178e-05
1.8103e-05
1.66925e-05
1.81598e-05
1.80188e-05
2.88686e-05
2.9986e-05
1.66539e-05
1.80477e-05
1.80108e-05
2.99573e-05
3.01977e-05
3.12851e-05
1.83733e-05
1.85135e-05
1.9816e-05
2.00311e-05
3.01682e-05
3.12763e-05
1.86376e-05
1.85433e-05
2.00289e-05
1.99009e-05
1.84962e-05
1.99177e-05
1.9888e-05
3.02926e-05
3.11884e-05
1.84898e-05
1.98055e-05
1.98446e-05
3.12537e-05
3.16073e-05
3.25924e-05
2.03048e-05
2.0514e-05
2.17863e-05
2.18305e-05
3.16032e-05
3.24536e-05
2.04891e-05
2.03672e-05
2.18495e-05
2.17413e-05
2.03273e-05
2.16967e-05
2.17667e-05
3.14979e-05
3.24935e-05
2.02778e-05
2.16889e-05
2.17353e-05
3.25722e-05
3.28825e-05
3.3786e-05
2.22733e-05
2.22688e-05
2.36725e-05
2.36238e-05
3.27202e-05
3.36658e-05
2.22944e-05
2.21968e-05
2.36087e-05
2.35703e-05
2.22663e-05
2.34109e-05
2.36385e-05
3.27923e-05
3.37361e-05
2.22423e-05
2.35411e-05
2.36123e-05
3.37793e-05
3.4071e-05
3.49286e-05
2.41645e-05
2.41218e-05
2.56159e-05
2.5556e-05
3.39699e-05
3.49037e-05
2.40985e-05
2.40655e-05
2.55634e-05
2.54862e-05
2.41299e-05
2.5455e-05
2.56504e-05
3.4021e-05
3.48733e-05
2.40958e-05
2.54734e-05
2.56207e-05
3.48618e-05
3.51475e-05
3.57593e-05
2.60231e-05
2.59418e-05
2.71056e-05
2.69669e-05
3.51322e-05
3.57715e-05
2.59617e-05
2.58728e-05
2.69655e-05
2.69364e-05
2.60628e-05
2.69765e-05
2.70251e-05
3.50992e-05
3.57694e-05
2.60481e-05
2.69798e-05
2.7054e-05
3.57657e-05
3.60381e-05
3.76691e-05
2.75961e-05
2.74563e-05
2.94674e-05
2.93643e-05
3.60581e-05
3.76863e-05
2.74397e-05
2.74433e-05
2.9321e-05
2.93866e-05
2.74712e-05
2.9354e-05
2.92944e-05
3.60635e-05
3.77004e-05
2.75038e-05
2.93914e-05
2.93226e-05
3.76226e-05
3.81005e-05
3.93201e-05
3.01601e-05
3.00679e-05
3.19435e-05
3.18874e-05
3.81148e-05
3.93283e-05
3.00202e-05
3.01024e-05
3.18461e-05
3.19316e-05
2.99904e-05
3.18969e-05
3.18602e-05
3.81298e-05
3.93452e-05
3.00182e-05
3.1926e-05
3.18785e-05
3.93161e-05
3.94842e-05
3.93404e-05
3.22638e-05
3.22172e-05
3.24922e-05
3.24531e-05
3.9493e-05
3.93457e-05
3.21816e-05
3.22549e-05
3.24239e-05
3.24783e-05
3.2217e-05
3.24758e-05
3.24889e-05
3.95077e-05
3.9353e-05
3.22314e-05
3.24915e-05
3.25005e-05
3.93811e-05
3.93377e-05
3.81111e-05
3.24759e-05
3.24372e-05
3.17608e-05
3.17302e-05
3.93427e-05
3.81056e-05
3.24085e-05
3.24603e-05
3.17095e-05
3.17268e-05
3.24755e-05
3.17416e-05
3.17815e-05
3.93488e-05
3.81033e-05
3.24872e-05
3.17518e-05
3.17923e-05
3.81454e-05
3.80277e-05
3.69525e-05
3.13886e-05
3.13581e-05
3.05899e-05
3.05616e-05
3.80211e-05
3.69382e-05
3.13406e-05
3.13535e-05
3.05525e-05
3.0559e-05
3.14003e-05
3.05589e-05
3.05825e-05
3.8019e-05
3.69417e-05
3.14102e-05
3.05697e-05
3.05882e-05
3.69569e-05
3.6961e-05
3.71957e-05
3.04981e-05
3.04714e-05
3.08173e-05
3.0804e-05
3.69468e-05
3.71856e-05
3.04639e-05
3.047e-05
3.08016e-05
3.08085e-05
3.04876e-05
3.07937e-05
3.08003e-05
3.69504e-05
3.71931e-05
3.04918e-05
3.08024e-05
3.0796e-05
3.71897e-05
3.74349e-05
3.85266e-05
3.12992e-05
3.12883e-05
3.27759e-05
3.27704e-05
3.74265e-05
3.85232e-05
3.12844e-05
3.12932e-05
3.27646e-05
3.27755e-05
3.12868e-05
3.27651e-05
3.2773e-05
3.7434e-05
3.85296e-05
3.12819e-05
3.27717e-05
3.27685e-05
3.85267e-05
3.88906e-05
4.10748e-05
3.34142e-05
3.341e-05
3.58647e-05
3.58634e-05
3.8888e-05
4.1073e-05
3.34048e-05
3.3415e-05
3.58592e-05
3.58669e-05
3.3413e-05
3.58602e-05
3.58666e-05
3.88939e-05
4.10773e-05
3.34088e-05
3.58646e-05
3.58634e-05
4.10767e-05
4.16266e-05
4.39696e-05
3.67762e-05
3.67754e-05
3.93642e-05
3.93642e-05
4.16251e-05
4.3968e-05
3.67717e-05
3.67784e-05
3.93617e-05
3.93659e-05
3.67786e-05
3.93618e-05
3.93673e-05
4.16288e-05
4.39706e-05
3.67758e-05
3.93654e-05
3.93654e-05
4.39717e-05
4.44189e-05
4.59794e-05
4.01096e-05
4.01097e-05
4.18804e-05
4.18806e-05
4.44174e-05
4.5978e-05
4.01076e-05
4.0111e-05
4.18791e-05
4.18811e-05
4.01127e-05
4.1879e-05
4.18834e-05
4.44196e-05
4.59796e-05
4.01111e-05
4.18819e-05
4.18822e-05
4.59814e-05
4.62539e-05
4.70454e-05
4.23187e-05
4.23188e-05
4.32462e-05
4.3246e-05
4.62526e-05
4.70442e-05
4.23176e-05
4.23193e-05
4.3245e-05
4.32465e-05
4.23218e-05
4.32455e-05
4.32493e-05
4.62541e-05
4.70458e-05
4.23206e-05
4.32479e-05
4.32483e-05
4.70476e-05
4.71876e-05
4.75008e-05
4.34499e-05
4.34496e-05
4.38472e-05
4.38469e-05
4.71866e-05
4.74999e-05
4.34488e-05
4.34501e-05
4.38462e-05
4.38475e-05
4.3453e-05
4.38474e-05
4.38505e-05
4.71881e-05
4.75014e-05
4.34521e-05
4.38494e-05
4.38497e-05
4.75033e-05
4.75758e-05
4.76924e-05
4.39294e-05
4.39292e-05
4.40884e-05
4.40884e-05
4.75751e-05
4.76918e-05
4.39286e-05
4.39297e-05
4.40877e-05
4.40887e-05
4.39328e-05
4.40892e-05
4.40918e-05
4.75763e-05
4.76929e-05
4.39321e-05
4.40909e-05
4.40913e-05
4.76949e-05
4.7737e-05
4.77655e-05
4.41213e-05
4.41213e-05
4.41786e-05
4.41787e-05
4.77366e-05
4.7765e-05
4.41207e-05
4.41215e-05
4.4178e-05
4.41787e-05
4.41246e-05
4.41794e-05
4.41819e-05
4.77375e-05
4.77658e-05
4.41242e-05
4.4181e-05
4.41815e-05
4.77679e-05
4.77961e-05
4.77831e-05
4.41865e-05
4.41865e-05
4.41901e-05
4.41901e-05
4.77957e-05
4.77825e-05
4.41858e-05
4.41865e-05
4.41894e-05
4.41902e-05
4.41897e-05
4.41908e-05
4.41934e-05
4.77964e-05
4.77835e-05
4.41893e-05
4.41925e-05
4.4193e-05
4.77856e-05
4.78057e-05
4.77574e-05
4.41867e-05
4.41866e-05
4.4183e-05
4.4183e-05
4.7805e-05
4.77568e-05
4.4186e-05
4.41868e-05
4.41823e-05
4.41831e-05
4.41901e-05
4.41837e-05
4.41864e-05
4.78061e-05
4.77579e-05
4.41896e-05
4.41855e-05
4.41859e-05
4.77601e-05
4.77846e-05
4.77856e-05
4.41852e-05
4.41853e-05
4.41959e-05
4.41959e-05
4.77842e-05
4.77853e-05
4.41846e-05
4.41853e-05
4.41951e-05
4.41958e-05
4.41886e-05
4.41966e-05
4.41991e-05
4.7785e-05
4.7786e-05
4.41882e-05
4.41982e-05
4.41985e-05
4.77881e-05
4.78134e-05
4.77722e-05
4.4196e-05
4.4196e-05
4.41898e-05
4.41897e-05
4.78131e-05
4.77713e-05
4.41952e-05
4.41959e-05
4.41891e-05
4.41898e-05
4.41991e-05
4.41904e-05
4.41929e-05
4.78138e-05
4.77721e-05
4.41986e-05
4.41921e-05
4.41925e-05
4.77741e-05
4.77948e-05
4.777e-05
4.41884e-05
4.41884e-05
4.4189e-05
4.41891e-05
4.7794e-05
4.77702e-05
4.41877e-05
4.41884e-05
4.41881e-05
4.41891e-05
4.41917e-05
4.41897e-05
4.41925e-05
4.77948e-05
4.77713e-05
4.41912e-05
4.41917e-05
4.41922e-05
4.77736e-05
4.7801e-05
4.77823e-05
4.41916e-05
4.41917e-05
4.41925e-05
4.41923e-05
4.78012e-05
4.77806e-05
4.41908e-05
4.41917e-05
4.41918e-05
4.41924e-05
4.4195e-05
4.41931e-05
4.41956e-05
4.78022e-05
4.77813e-05
4.41947e-05
4.41946e-05
4.41948e-05
4.77832e-05
4.78037e-05
4.7767e-05
4.419e-05
4.41899e-05
4.41896e-05
4.41899e-05
4.7802e-05
4.77678e-05
4.41892e-05
4.41899e-05
4.41888e-05
4.41897e-05
4.41932e-05
4.41905e-05
4.4193e-05
4.78027e-05
4.77687e-05
4.41924e-05
4.41924e-05
4.41927e-05
4.77708e-05
4.77985e-05
4.77797e-05
4.41913e-05
4.41915e-05
4.41907e-05
4.41905e-05
4.77994e-05
4.77774e-05
4.41906e-05
4.41915e-05
4.41899e-05
4.41906e-05
4.41947e-05
4.41912e-05
4.41938e-05
4.78002e-05
4.77785e-05
4.41943e-05
4.4193e-05
4.41934e-05
4.77808e-05
4.78013e-05
4.77729e-05
4.41901e-05
4.41901e-05
4.41908e-05
4.4191e-05
4.77991e-05
4.77747e-05
4.41891e-05
4.41899e-05
4.41899e-05
4.41908e-05
4.41933e-05
4.41916e-05
4.41942e-05
4.78001e-05
4.77751e-05
4.41929e-05
4.4193e-05
4.41933e-05
4.77768e-05
4.78034e-05
4.77707e-05
4.41908e-05
4.41909e-05
4.41905e-05
4.41904e-05
4.78045e-05
4.77685e-05
4.41901e-05
4.41908e-05
4.41897e-05
4.41905e-05
4.41941e-05
4.41912e-05
4.41938e-05
4.7805e-05
4.77696e-05
4.41934e-05
4.4193e-05
4.41934e-05
4.77721e-05
4.77935e-05
4.77824e-05
4.41905e-05
4.41907e-05
4.41906e-05
4.41906e-05
4.77917e-05
4.77827e-05
4.41897e-05
4.41905e-05
4.41896e-05
4.41905e-05
4.41938e-05
4.41913e-05
4.41939e-05
4.77927e-05
4.77834e-05
4.41935e-05
4.41929e-05
4.41933e-05
4.77855e-05
4.7809e-05
4.77678e-05
4.41904e-05
4.41903e-05
4.41909e-05
4.41911e-05
4.7808e-05
4.77697e-05
4.41896e-05
4.41904e-05
4.41896e-05
4.41908e-05
4.41938e-05
4.41916e-05
4.41942e-05
4.78085e-05
4.77717e-05
4.41931e-05
4.41935e-05
4.41938e-05
4.77728e-05
4.77987e-05
4.777e-05
4.41909e-05
4.41911e-05
4.41902e-05
4.41903e-05
4.78012e-05
4.77683e-05
4.41896e-05
4.41907e-05
4.41896e-05
4.41904e-05
4.41941e-05
4.41912e-05
4.41938e-05
4.78029e-05
4.77684e-05
4.41937e-05
4.41928e-05
4.41931e-05
4.77709e-05
4.77931e-05
4.77815e-05
4.41905e-05
4.41907e-05
4.41905e-05
4.41904e-05
4.77921e-05
4.77783e-05
4.41897e-05
4.41908e-05
4.41895e-05
4.41902e-05
4.41942e-05
4.41911e-05
4.41936e-05
4.77928e-05
4.7777e-05
4.41936e-05
4.41927e-05
4.4193e-05
4.77799e-05
4.78038e-05
4.77786e-05
4.41901e-05
4.41903e-05
4.41908e-05
4.4191e-05
4.77998e-05
4.77809e-05
4.41893e-05
4.41901e-05
4.41899e-05
4.41909e-05
4.41936e-05
4.41919e-05
4.41944e-05
4.77985e-05
4.77823e-05
4.41929e-05
4.41937e-05
4.41939e-05
4.77846e-05
4.78071e-05
4.77672e-05
4.41907e-05
4.41905e-05
4.41903e-05
4.4191e-05
4.78067e-05
4.77754e-05
4.41899e-05
4.41904e-05
4.41894e-05
4.41907e-05
4.41934e-05
4.4192e-05
4.41944e-05
4.78071e-05
4.77769e-05
4.41931e-05
4.41935e-05
4.41937e-05
4.77758e-05
4.77975e-05
4.77695e-05
4.41905e-05
4.4191e-05
4.41904e-05
4.41907e-05
4.78053e-05
4.77667e-05
4.41896e-05
4.41907e-05
4.41896e-05
4.41906e-05
4.41951e-05
4.41908e-05
4.41931e-05
4.78064e-05
4.77679e-05
4.41944e-05
4.41925e-05
4.41926e-05
4.77703e-05
4.77929e-05
4.77787e-05
4.41904e-05
4.4191e-05
4.41905e-05
4.41904e-05
4.77962e-05
4.77695e-05
4.41895e-05
4.41908e-05
4.41896e-05
4.41904e-05
4.41932e-05
4.41913e-05
4.41941e-05
4.77977e-05
4.77697e-05
4.41928e-05
4.41929e-05
4.41935e-05
4.77732e-05
4.78001e-05
4.77811e-05
4.41905e-05
4.41907e-05
4.41904e-05
4.41907e-05
4.77926e-05
4.77814e-05
4.41896e-05
4.41907e-05
4.41895e-05
4.41905e-05
4.41941e-05
4.41915e-05
4.41943e-05
4.77933e-05
4.77793e-05
4.41935e-05
4.4193e-05
4.41939e-05
4.77854e-05
4.7806e-05
4.77787e-05
4.41904e-05
4.41907e-05
4.41913e-05
4.41907e-05
4.78042e-05
4.77768e-05
4.41896e-05
4.41905e-05
4.41901e-05
4.41905e-05
4.41943e-05
4.41914e-05
4.41938e-05
4.7801e-05
4.77783e-05
4.41936e-05
4.41929e-05
4.41932e-05
4.77759e-05
4.78079e-05
4.77658e-05
4.41914e-05
4.41908e-05
4.41903e-05
4.41908e-05
4.78048e-05
4.7778e-05
4.41902e-05
4.41906e-05
4.41894e-05
4.41907e-05
4.41945e-05
4.41918e-05
4.41942e-05
4.78017e-05
4.77785e-05
4.41942e-05
4.41929e-05
4.41931e-05
4.77718e-05
4.77914e-05
4.77798e-05
4.41905e-05
4.41907e-05
4.41912e-05
4.41912e-05
4.78047e-05
4.77781e-05
4.41896e-05
4.41905e-05
4.41903e-05
4.4191e-05
4.41941e-05
4.4192e-05
4.41943e-05
4.77996e-05
4.7782e-05
4.4193e-05
4.41937e-05
4.41941e-05
4.77855e-05
4.78036e-05
4.77674e-05
4.41913e-05
4.41916e-05
4.41899e-05
4.41901e-05
4.78072e-05
4.77655e-05
4.41904e-05
4.41913e-05
4.41892e-05
4.419e-05
4.41944e-05
4.41912e-05
4.41939e-05
4.78093e-05
4.77667e-05
4.41939e-05
4.41924e-05
4.41935e-05
4.77773e-05
4.77918e-05
4.77798e-05
4.41904e-05
4.41907e-05
4.419e-05
4.41901e-05
4.77922e-05
4.77772e-05
4.41898e-05
4.41906e-05
4.41893e-05
4.41902e-05
4.41944e-05
4.41911e-05
4.41936e-05
4.77954e-05
4.77769e-05
4.41944e-05
4.41925e-05
4.41927e-05
4.77692e-05
4.78012e-05
4.7778e-05
4.41902e-05
4.41903e-05
4.419e-05
4.41902e-05
4.77988e-05
4.77791e-05
4.41894e-05
4.41904e-05
4.41892e-05
4.41901e-05
4.4194e-05
4.41912e-05
4.41938e-05
4.78e-05
4.77701e-05
4.41932e-05
4.41924e-05
4.4193e-05
4.7781e-05
4.78068e-05
4.77658e-05
4.41906e-05
4.41907e-05
4.41898e-05
4.419e-05
4.78074e-05
4.77653e-05
4.41897e-05
4.41906e-05
4.41887e-05
4.41898e-05
4.41939e-05
4.41907e-05
4.41937e-05
4.77993e-05
4.77683e-05
4.41931e-05
4.4192e-05
4.41928e-05
4.77833e-05
4.77938e-05
4.77721e-05
4.41904e-05
4.41907e-05
4.41899e-05
4.41903e-05
4.77937e-05
4.77733e-05
4.41895e-05
4.41903e-05
4.41889e-05
4.41899e-05
4.41942e-05
4.41905e-05
4.41931e-05
4.77923e-05
4.77789e-05
4.41934e-05
4.41923e-05
4.41926e-05
4.77727e-05
4.77947e-05
4.77802e-05
4.41906e-05
4.41909e-05
4.41895e-05
4.419e-05
4.77956e-05
4.77801e-05
4.41895e-05
4.41904e-05
4.41888e-05
4.41898e-05
4.41942e-05
4.41904e-05
4.41927e-05
4.78005e-05
4.77809e-05
4.41935e-05
4.41921e-05
4.41922e-05
4.77698e-05
4.78028e-05
4.778e-05
4.41906e-05
4.41911e-05
4.41895e-05
4.41899e-05
4.78041e-05
4.77801e-05
4.41898e-05
4.41907e-05
4.41885e-05
4.41894e-05
4.41938e-05
4.41903e-05
4.41926e-05
4.78066e-05
4.77773e-05
4.41935e-05
4.41916e-05
4.41917e-05
4.77748e-05
4.78068e-05
4.77737e-05
4.41905e-05
4.41908e-05
4.41893e-05
4.41897e-05
4.78064e-05
4.77737e-05
4.41899e-05
4.41908e-05
4.41883e-05
4.4189e-05
4.41938e-05
4.41901e-05
4.41925e-05
4.78065e-05
4.77679e-05
4.4193e-05
4.41916e-05
4.41918e-05
4.77825e-05
4.7804e-05
4.77692e-05
4.41912e-05
4.41916e-05
4.41887e-05
4.41887e-05
4.78045e-05
4.77657e-05
4.419e-05
4.41908e-05
4.41881e-05
4.41888e-05
4.41941e-05
4.41893e-05
4.41923e-05
4.77988e-05
4.77686e-05
4.41932e-05
4.41909e-05
4.41914e-05
4.77812e-05
4.77998e-05
4.77669e-05
4.41911e-05
4.41911e-05
4.41885e-05
4.41888e-05
4.77909e-05
4.77778e-05
4.41903e-05
4.41909e-05
4.41877e-05
4.41887e-05
4.41945e-05
4.41892e-05
4.41918e-05
4.77926e-05
4.7779e-05
4.41937e-05
4.41906e-05
4.41907e-05
4.77737e-05
4.77956e-05
4.7769e-05
4.41915e-05
4.41914e-05
4.41882e-05
4.41886e-05
4.77998e-05
4.77789e-05
4.4191e-05
4.41915e-05
4.41873e-05
4.41884e-05
4.41949e-05
4.4189e-05
4.41914e-05
4.78009e-05
4.77802e-05
4.41938e-05
4.41907e-05
4.41906e-05
4.77699e-05
4.77928e-05
4.77816e-05
4.41921e-05
4.41924e-05
4.41882e-05
4.4188e-05
4.78068e-05
4.77689e-05
4.41913e-05
4.41923e-05
4.41876e-05
4.41882e-05
4.41955e-05
4.41885e-05
4.41911e-05
4.78077e-05
4.77706e-05
4.41945e-05
4.41902e-05
4.41903e-05
4.77705e-05
4.78055e-05
4.77747e-05
4.41934e-05
4.41935e-05
4.41881e-05
4.41879e-05
4.78007e-05
4.7767e-05
4.41927e-05
4.41937e-05
4.41874e-05
4.4188e-05
4.41964e-05
4.41886e-05
4.41913e-05
4.78023e-05
4.77682e-05
4.41957e-05
4.419e-05
4.41903e-05
4.77721e-05
4.78048e-05
4.77648e-05
4.41952e-05
4.41949e-05
4.41807e-05
4.41808e-05
4.77928e-05
4.77682e-05
4.41944e-05
4.4195e-05
4.41802e-05
4.4181e-05
4.41981e-05
4.41815e-05
4.41839e-05
4.77939e-05
4.77688e-05
4.41973e-05
4.41827e-05
4.41828e-05
4.77706e-05
4.77894e-05
4.74961e-05
4.41859e-05
4.41859e-05
4.39201e-05
4.39205e-05
4.77902e-05
4.74987e-05
4.41853e-05
4.41862e-05
4.39213e-05
4.39189e-05
4.4189e-05
4.39234e-05
4.39226e-05
4.77908e-05
4.74981e-05
4.41879e-05
4.39231e-05
4.39235e-05
4.74997e-05
4.72228e-05
4.28788e-05
4.28791e-05
4.72239e-05
4.28804e-05
4.28776e-05
2.91308e-05
2.91298e-05
2.91321e-05
4.28811e-05
4.72233e-05
4.28825e-05
3.54275e-06
4.6791e-07
2.29792e-06
2.29557e-06
1.09955e-07
3.40588e-07
4.56303e-07
1.28415e-06
9.92931e-08
3.19596e-07
1.32019e-06
4.41858e-07
3.59343e-07
3.80244e-07
2.65801e-07
2.90874e-07
4.96802e-06
2.46928e-07
6.65015e-06
1.41525e-05
2.18328e-05
3.02881e-07
4.98159e-06
2.54965e-07
6.64638e-06
1.25248e-06
1.26124e-06
1.25016e-06
1.22991e-06
1.23787e-06
1.24771e-06
1.23577e-06
1.05431e-07
7.21475e-07
5.66295e-07
3.56909e-07
1.07494e-07
6.93699e-07
5.6003e-07
1.4134e-05
2.17072e-05
1.03774e-07
6.25244e-07
6.46306e-07
3.31279e-07
1.02346e-07
6.19659e-07
6.05238e-07
1.90321e-06
1.88982e-06
3.45147e-07
1.88342e-06
1.86988e-06
5.09269e-07
9.80631e-06
4.01869e-07
1.26593e-05
3.71407e-05
4.67718e-05
5.08416e-07
9.80703e-06
4.0904e-07
1.26591e-05
1.2429e-06
1.25292e-06
1.24078e-06
1.251e-06