/*--------------------------------*- C++ -*----------------------------------*\
| =========                 |                                                 |
| \\      /  F ield         | OpenFOAM: The Open Source CFD Toolbox           |
|  \\    /   O peration     | Version:  v1906                                 |
|   \\  /    A nd           | Web:      www.OpenFOAM.com                      |
|    \\/     M anipulation  |                                                 |
\*---------------------------------------------------------------------------*/
FoamFile
{
    version     2.0;
    format      ascii;
    class       volScalarField;
    location    "212.5";
    object      nut;
}
// * * * * * * * * * * * * * * * * * * * * * * * * * * * * * * * * * * * * * //

dimensions      [0 2 -1 0 0 0 0];


internalField   nonuniform List<scalar> 
171728
(
1.47562e-05
2.44562e-06
1.85703e-06
2.22465e-06
1.46561e-05
2.45081e-06
1.83966e-06
2.22966e-06
1.50057e-05
2.4769e-06
1.86967e-06
2.25382e-06
1.5359e-05
2.50143e-06
2.10063e-06
2.30422e-06
1.57148e-05
2.51194e-06
2.79723e-06
2.37232e-06
1.60907e-05
2.5664e-06
4.42007e-06
2.42763e-06
1.64446e-05
2.62755e-06
6.19893e-06
2.46573e-06
1.68117e-05
2.65427e-06
6.80706e-06
2.4843e-06
1.71755e-05
2.6906e-06
4.85597e-06
2.48685e-06
1.75466e-05
2.7212e-06
3.35187e-06
2.45948e-06
1.79151e-05
2.72746e-06
2.82119e-06
2.36055e-06
1.82352e-05
2.73305e-06
2.821e-06
2.20163e-06
1.8566e-05
2.74619e-06
2.79028e-06
2.06075e-06
1.89389e-05
2.77551e-06
2.76302e-06
1.9207e-06
1.93147e-05
2.76791e-06
2.76065e-06
1.79935e-06
1.9698e-05
2.7566e-06
2.75863e-06
1.70694e-06
2.01062e-05
2.73937e-06
2.77382e-06
1.63817e-06
2.04568e-05
2.69993e-06
2.71834e-06
1.51231e-06
2.08427e-05
2.69072e-06
2.7615e-06
1.69526e-06
2.12043e-05
2.84766e-06
2.81372e-06
1.79106e-06
2.14368e-05
3.0436e-06
3.14537e-06
2.04927e-06
2.18441e-05
3.30679e-06
3.30455e-06
2.56595e-06
2.1902e-05
3.553e-06
3.84436e-06
4.31458e-06
2.21953e-05
4.96634e-06
4.82033e-06
7.1013e-06
2.22948e-05
5.64995e-06
5.86036e-06
9.61512e-06
2.23703e-05
6.8739e-06
7.00503e-06
1.3217e-05
2.25019e-05
9.06947e-06
8.98381e-06
1.80345e-05
2.24446e-05
1.10021e-05
1.13304e-05
2.59362e-05
2.24978e-05
1.38267e-05
1.39682e-05
3.21612e-05
2.2301e-05
1.71363e-05
1.72457e-05
4.0071e-05
2.23241e-05
2.01929e-05
2.08453e-05
4.71869e-05
2.23025e-05
2.48565e-05
2.46556e-05
5.42267e-05
2.23439e-05
2.8981e-05
2.93825e-05
6.02828e-05
2.26386e-05
3.43257e-05
3.40271e-05
6.63288e-05
2.29218e-05
3.96922e-05
3.97281e-05
7.1737e-05
2.39093e-05
4.61145e-05
4.49358e-05
7.6809e-05
2.49484e-05
5.17402e-05
5.09806e-05
8.16954e-05
2.66058e-05
5.89193e-05
5.69086e-05
8.61794e-05
2.82061e-05
6.40125e-05
6.35275e-05
9.06107e-05
3.04436e-05
7.03028e-05
6.96002e-05
9.47788e-05
3.31713e-05
7.62761e-05
7.62945e-05
9.99548e-05
3.62276e-05
8.24747e-05
8.31293e-05
0.000104363
4.09965e-05
9.05273e-05
9.04509e-05
0.000108515
4.3803e-05
9.5698e-05
9.57375e-05
0.000111312
5.1889e-05
0.000108069
0.000108331
0.000120643
6.42564e-05
0.00012111
0.000121271
0.00012928
6.85389e-05
0.000122522
0.000122623
0.000130427
6.26032e-05
0.000114651
0.000114709
0.000124227
5.13408e-05
0.000105954
0.000106006
0.000117188
4.81545e-05
0.000106812
0.000106851
0.000117347
5.81958e-05
0.000115502
0.000115526
0.000121948
8.13157e-05
0.00013276
0.000132772
0.000133387
0.000115649
0.000152461
0.000152469
0.000146783
0.000146578
0.00016667
0.000166674
0.000156152
0.000166158
0.000174319
0.000174319
0.000161072
0.000175679
0.000177634
0.000177632
0.000163119
0.00017965
0.000178979
0.000178975
0.000163969
0.000181098
0.000179459
0.000179455
0.000164307
0.000181329
0.000179471
0.000179468
0.000164396
0.000181362
0.000179443
0.00017944
0.000164234
0.000181447
0.000179531
0.000179525
0.000164418
0.000181412
0.000179477
0.000179473
0.000164316
0.000181421
0.000179495
0.000179494
0.000164332
0.000181419
0.000179489
0.000179483
0.000164364
0.000181417
0.000179495
0.000179492
0.000164325
0.000181415
0.000179488
0.000179484
0.00016435
0.000181415
0.000179494
0.000179487
0.000164359
0.000181414
0.000179492
0.000179489
0.000164292
0.000181414
0.000179491
0.000179486
0.0001644
0.000181414
0.000179494
0.000179491
0.000164343
0.000181416
0.000179494
0.00017949
0.000164285
0.000181415
0.000179491
0.000179485
0.000164334
0.000181416
0.000179491
0.000179487
0.000164394
0.000181417
0.0001795
0.000179495
0.00016436
0.000181417
0.000179491
0.000179487
0.000164291
0.000181417
0.000179493
0.000179488
0.000164294
0.00018142
0.000179495
0.00017949
0.000164379
0.000181421
0.000179496
0.000179491
0.000164358
0.000181419
0.000179495
0.000179486
0.000164292
0.00018142
0.000179501
0.000179495
0.000164389
0.000181418
0.000179496
0.000179489
0.000164364
0.000181417
0.000179492
0.000179487
0.000164278
0.000181417
0.000179495
0.000179489
0.000164345
0.000181417
0.000179495
0.000179486
0.000164397
0.000181418
0.000179493
0.000179487
0.00016435
0.000181417
0.000179493
0.000179489
0.000164297
0.000181417
0.000179493
0.000179488
0.000164317
0.000181417
0.000179495
0.000179489
0.000164369
0.000181417
0.000179493
0.000179488
0.000164382
0.000181417
0.000179493
0.000179486
0.000164348
0.000181417
0.000179497
0.000179491
0.000164309
0.000181419
0.000179499
0.000179495
0.000164296
0.000181419
0.000179505
0.0001795
0.000164301
0.000181513
0.000179488
0.000179481
0.000164319
0.000182303
0.000179661
0.000179656
0.000166393
2.1827e-06
2.48062e-06
2.53441e-06
2.16026e-06
2.68026e-06
2.53937e-06
1.52591e-05
1.533e-05
1.54595e-05
1.53597e-05
2.44723e-06
2.6188e-06
2.25513e-06
2.18124e-06
2.42132e-06
2.24275e-06
2.17132e-06
2.25077e-06
2.4814e-06
2.5129e-06
2.48493e-06
2.52361e-06
2.1408e-06
2.16461e-06
2.55518e-06
2.49514e-06
2.58671e-06
2.50005e-06
2.54066e-06
2.44634e-06
2.53476e-06
2.24278e-06
2.2206e-06
2.43192e-06
1.83597e-06
2.43621e-06
2.239e-06
2.24232e-06
2.30437e-06
2.49099e-06
2.52335e-06
2.51084e-06
2.52575e-06
2.14631e-06
2.16659e-06
2.60465e-06
2.50686e-06
2.62162e-06
2.5291e-06
2.54111e-06
2.46767e-06
2.56521e-06
2.21573e-06
2.19022e-06
2.44586e-06
1.85626e-06
2.48114e-06
2.25329e-06
2.28634e-06
2.29425e-06
2.51708e-06
2.53485e-06
2.54827e-06
2.57945e-06
2.14563e-06
2.16168e-06
2.60256e-06
2.53513e-06
2.48966e-06
2.55674e-06
2.57832e-06
2.49761e-06
2.6224e-06
2.18403e-06
2.18108e-06
2.4915e-06
2.02587e-06
2.52672e-06
2.29938e-06
2.27043e-06
2.26196e-06
2.56155e-06
2.59571e-06
2.59541e-06
2.62252e-06
2.14325e-06
2.17672e-06
2.45215e-06
2.56582e-06
2.38372e-06
2.58623e-06
2.64033e-06
2.5034e-06
2.70325e-06
2.18765e-06
2.30085e-06
2.54174e-06
2.53562e-06
2.58165e-06
2.37634e-06
2.2327e-06
2.21065e-06
2.60488e-06
2.62852e-06
2.63049e-06
2.64633e-06
2.16327e-06
2.21793e-06
2.37489e-06
2.5938e-06
2.37457e-06
2.62006e-06
2.72861e-06
2.55215e-06
2.79806e-06
2.32603e-06
2.52041e-06
2.59014e-06
3.94085e-06
2.61861e-06
2.44096e-06
2.19331e-06
2.24325e-06
2.64116e-06
2.65336e-06
2.67382e-06
2.67565e-06
2.20771e-06
2.26652e-06
2.38601e-06
2.62942e-06
2.44214e-06
2.66184e-06
2.81352e-06
2.61362e-06
2.86187e-06
2.52803e-06
2.70679e-06
2.63066e-06
5.8393e-06
2.65709e-06
2.48201e-06
2.23425e-06
2.29311e-06
2.6848e-06
2.67878e-06
2.70838e-06
2.69938e-06
2.25563e-06
2.29591e-06
2.46275e-06
2.66985e-06
2.49898e-06
2.68804e-06
2.87713e-06
2.65054e-06
2.98677e-06
2.68896e-06
2.71268e-06
2.65868e-06
6.81372e-06
2.6713e-06
2.50297e-06
2.28079e-06
2.29362e-06
2.71526e-06
2.70185e-06
2.71693e-06
2.69811e-06
2.27899e-06
2.29583e-06
2.50148e-06
2.69051e-06
2.48557e-06
2.69462e-06
3.03347e-06
2.68092e-06
3.19689e-06
2.64943e-06
2.41176e-06
2.67684e-06
5.34794e-06
2.7063e-06
2.50557e-06
2.27066e-06
2.23829e-06
2.72021e-06
2.70381e-06
2.73311e-06
2.7163e-06
2.27947e-06
2.29002e-06
2.47607e-06
2.69882e-06
2.46183e-06
2.70626e-06
3.26503e-06
2.71842e-06
3.45419e-06
2.36676e-06
2.28403e-06
2.71516e-06
3.64636e-06
2.74856e-06
2.48776e-06
2.21291e-06
2.16904e-06
2.73724e-06
2.72475e-06
2.76174e-06
2.76609e-06
2.27262e-06
2.26448e-06
2.4584e-06
2.71065e-06
2.44809e-06
2.71769e-06
3.50128e-06
2.72827e-06
3.59597e-06
2.2538e-06
2.23264e-06
2.75728e-06
2.86739e-06
2.78568e-06
2.39954e-06
2.14338e-06
2.08713e-06
2.76676e-06
2.77737e-06
2.78547e-06
2.82247e-06
2.24553e-06
2.21903e-06
2.45101e-06
2.72137e-06
2.4584e-06
2.73499e-06
3.60228e-06
2.73432e-06
3.5482e-06
2.2142e-06
2.15985e-06
2.78917e-06
2.80786e-06
2.79302e-06
2.2462e-06
2.06092e-06
1.99068e-06
2.79042e-06
2.82626e-06
2.79303e-06
2.8543e-06
2.1954e-06
2.16079e-06
2.45149e-06
2.73116e-06
2.44643e-06
2.74603e-06
3.46134e-06
2.73501e-06
3.14038e-06
2.12886e-06
2.07488e-06
2.79534e-06
2.80647e-06
2.8079e-06
2.08938e-06
1.96612e-06
1.88384e-06
2.79738e-06
2.86497e-06
2.79997e-06
2.88028e-06
2.13916e-06
2.09387e-06
2.44073e-06
2.74848e-06
2.41533e-06
2.75537e-06
3.03064e-06
2.77065e-06
2.78384e-06
2.05291e-06
2.00631e-06
2.8076e-06
2.76433e-06
2.80384e-06
1.95092e-06
1.85963e-06
1.78513e-06
2.80149e-06
2.8911e-06
2.80691e-06
2.85707e-06
2.07496e-06
1.9977e-06
2.41603e-06
2.76461e-06
2.43062e-06
2.76672e-06
2.73567e-06
2.76841e-06
2.58803e-06
1.98412e-06
1.93284e-06
2.80678e-06
2.7608e-06
2.78892e-06
1.83095e-06
1.76021e-06
1.6989e-06
2.81293e-06
2.84115e-06
2.81311e-06
2.85025e-06
1.95862e-06
1.90844e-06
2.44247e-06
2.77002e-06
2.4572e-06
2.77824e-06
2.54043e-06
2.76783e-06
2.51435e-06
1.90725e-06
1.83454e-06
2.79132e-06
2.76097e-06
2.79964e-06
1.73353e-06
1.66958e-06
1.58535e-06
2.81519e-06
2.8476e-06
2.77377e-06
2.83177e-06
1.88121e-06
1.78655e-06
2.46692e-06
2.78179e-06
2.44359e-06
2.79142e-06
2.52478e-06
2.73355e-06
2.55487e-06
1.81624e-06
1.74462e-06
2.80519e-06
2.75912e-06
2.80552e-06
1.66578e-06
1.5608e-06
1.56138e-06
2.78402e-06
2.84328e-06
2.74124e-06
2.79901e-06
1.76046e-06
1.72476e-06
2.45391e-06
2.80066e-06
2.45831e-06
2.7347e-06
2.57804e-06
2.70564e-06
2.53661e-06
1.73614e-06
1.61532e-06
2.81317e-06
2.71421e-06
2.75038e-06
1.5581e-06
1.49612e-06
1.61718e-06
2.70767e-06
2.78809e-06
2.78219e-06
2.83277e-06
1.66069e-06
1.77881e-06
2.45212e-06
2.75422e-06
2.51019e-06
2.81317e-06
2.51655e-06
2.74306e-06
2.65174e-06
1.58089e-06
1.75824e-06
2.73356e-06
2.7744e-06
2.83617e-06
1.72815e-06
1.60528e-06
1.61315e-06
2.7884e-06
2.77614e-06
2.77443e-06
2.98053e-06
1.73453e-06
1.9293e-06
2.5175e-06
2.80047e-06
2.52713e-06
2.86104e-06
2.62655e-06
2.84594e-06
2.62292e-06
1.71073e-06
1.7852e-06
2.79127e-06
2.82292e-06
2.81927e-06
1.58024e-06
1.6837e-06
2.07722e-06
2.83324e-06
2.98871e-06
3.00325e-06
2.9219e-06
2.10164e-06
1.75571e-06
2.60803e-06
2.83611e-06
2.82189e-06
3.0514e-06
2.6861e-06
2.86307e-06
2.88885e-06
1.83163e-06
2.12356e-06
2.90423e-06
3.07074e-06
3.0365e-06
2.0474e-06
2.02223e-06
2.72644e-06
2.90478e-06
3.10898e-06
3.3573e-06
3.31248e-06
1.95986e-06
3.02748e-06
2.7274e-06
3.12596e-06
3.1572e-06
3.01211e-06
2.90629e-06
3.18934e-06
2.86779e-06
2.36285e-06
2.27491e-06
3.04787e-06
3.00954e-06
3.08216e-06
2.25032e-06
3.66433e-06
3.51084e-06
3.72334e-06
3.42102e-06
3.57933e-06
3.43227e-06
2.93012e-06
3.54176e-06
3.5459e-06
3.30828e-06
3.45323e-06
3.98094e-06
3.23951e-06
3.47601e-06
3.79423e-06
2.41844e-06
4.90881e-06
3.43686e-06
3.97185e-06
3.90967e-06
4.58449e-06
3.12836e-06
7.75187e-06
3.39516e-06
3.48078e-06
4.82518e-06
4.74792e-06
3.61376e-06
6.94027e-06
3.27914e-06
3.85351e-06
4.67471e-06
4.23133e-06
3.60914e-06
4.71198e-06
4.14366e-06
4.72859e-06
4.57741e-06
3.72887e-06
4.21472e-06
4.44107e-06
4.94041e-06
8.94241e-06
8.19352e-06
5.05199e-06
4.98871e-06
5.39496e-06
5.27341e-06
8.11907e-06
8.32337e-06
4.87217e-06
4.8268e-06
5.25962e-06
5.85011e-06
4.96546e-06
5.37316e-06
5.32341e-06
5.88774e-06
1.10454e-05
5.13644e-06
5.82266e-06
5.47621e-06
1.01442e-05
8.44403e-06
1.2067e-05
5.69855e-06
5.57425e-06
6.53242e-06
6.51158e-06
8.48881e-06
1.20572e-05
5.62262e-06
5.90372e-06
6.44024e-06
6.58305e-06
5.40348e-06
6.53571e-06
6.61431e-06
1.09429e-05
1.10396e-05
5.60491e-06
6.53792e-06
6.72908e-06
1.19712e-05
1.26242e-05
1.76012e-05
6.9023e-06
6.82279e-06
8.43814e-06
8.44691e-06
1.28388e-05
1.76156e-05
6.7474e-06
7.05803e-06
8.40268e-06
8.54736e-06
6.9027e-06
8.50024e-06
8.1129e-06
1.20034e-05
1.79635e-05
7.04949e-06
8.43897e-06
8.32185e-06
1.6824e-05
1.91156e-05
2.42044e-05
8.99218e-06
9.0261e-06
1.05985e-05
1.04378e-05
1.91145e-05
2.44016e-05
9.03368e-06
9.09966e-06
1.04287e-05
1.07907e-05
8.81676e-06
1.04402e-05
1.04729e-05
1.9183e-05
2.45869e-05
8.97674e-06
1.0794e-05
1.06758e-05
2.48568e-05
2.51649e-05
3.09492e-05
1.10975e-05
1.10584e-05
1.30717e-05
1.31202e-05
2.5332e-05
3.11959e-05
1.0867e-05
1.13253e-05
1.31774e-05
1.33202e-05
1.09635e-05
1.31179e-05
1.30365e-05
2.58454e-05
3.11205e-05
1.11614e-05
1.31805e-05
1.31367e-05
3.06164e-05
3.26221e-05
3.88441e-05
1.39211e-05
1.37074e-05
1.6207e-05
1.61227e-05
3.27749e-05
3.85549e-05
1.4092e-05
1.40757e-05
1.59364e-05
1.63608e-05
1.37422e-05
1.62477e-05
1.60377e-05
3.24983e-05
3.90147e-05
1.39081e-05
1.64703e-05
1.62916e-05
3.87047e-05
3.99913e-05
4.5299e-05
1.69143e-05
1.7119e-05
1.95726e-05
1.93239e-05
3.99319e-05
4.5552e-05
1.65589e-05
1.71528e-05
1.97061e-05
1.99574e-05
1.69495e-05
1.9329e-05
1.96004e-05
4.04467e-05
4.59466e-05
1.71207e-05
1.98431e-05
1.96868e-05
4.57397e-05
4.70075e-05
5.32396e-05
2.06547e-05
2.02095e-05
2.39486e-05
2.4001e-05
4.67762e-05
5.27506e-05
2.08715e-05
2.10427e-05
2.36901e-05
2.37899e-05
2.05174e-05
2.37429e-05
2.3717e-05
4.7436e-05
5.29726e-05
2.0658e-05
2.36319e-05
2.38911e-05
5.28281e-05
5.44505e-05
5.8713e-05
2.48152e-05
2.49781e-05
2.77288e-05
2.77715e-05
5.43569e-05
5.89437e-05
2.45791e-05
2.46741e-05
2.78151e-05
2.84564e-05
2.47939e-05
2.78806e-05
2.80125e-05
5.42192e-05
5.93895e-05
2.49097e-05
2.83647e-05
2.79788e-05
5.90378e-05
6.0093e-05
6.53902e-05
2.91606e-05
2.91601e-05
3.31259e-05
3.34005e-05
6.0244e-05
6.56319e-05
2.90853e-05
2.97079e-05
3.29408e-05
3.27736e-05
2.91611e-05
3.29085e-05
3.2845e-05
6.07167e-05
6.48125e-05
2.91219e-05
3.24773e-05
3.28332e-05
6.50567e-05
6.64828e-05
7.05311e-05
3.40977e-05
3.45434e-05
3.78728e-05
3.79876e-05
6.68096e-05
7.03485e-05
3.41247e-05
3.40658e-05
3.75901e-05
3.86408e-05
3.42009e-05
3.83107e-05
3.82087e-05
6.61026e-05
7.12253e-05
3.41778e-05
3.86563e-05
3.81535e-05
7.06548e-05
7.1892e-05
7.62488e-05
3.94822e-05
3.93805e-05
4.40243e-05
4.40848e-05
7.15153e-05
7.62857e-05
3.89282e-05
3.99336e-05
4.39043e-05
4.36869e-05
3.93488e-05
4.45677e-05
4.34187e-05
7.22655e-05
7.53455e-05
3.93442e-05
4.32992e-05
4.3508e-05
7.56371e-05
7.71848e-05
8.04483e-05
4.53099e-05
4.54058e-05
4.94464e-05
4.85807e-05
7.73826e-05
8.01488e-05
4.55643e-05
4.51717e-05
4.99415e-05
4.95693e-05
4.50995e-05
5.01861e-05
4.96222e-05
7.65262e-05
8.08152e-05
4.51002e-05
4.97084e-05
4.93215e-05
8.07137e-05
8.15645e-05
8.5487e-05
5.11183e-05
4.99777e-05
5.5839e-05
5.58379e-05
8.12056e-05
8.61029e-05
5.1495e-05
5.08543e-05
5.6429e-05
5.52641e-05
5.10437e-05
5.72133e-05
5.58354e-05
8.17494e-05
8.48781e-05
5.0744e-05
5.51232e-05
5.56165e-05
8.51753e-05
8.63645e-05
8.92104e-05
5.71241e-05
5.77334e-05
6.11715e-05
6.19752e-05
8.71501e-05
8.95016e-05
5.79999e-05
5.70925e-05
6.26242e-05
6.23197e-05
5.73319e-05
6.28066e-05
6.16773e-05
8.59712e-05
8.99309e-05
5.71417e-05
6.21146e-05
6.17022e-05
8.95846e-05
9.01917e-05
9.40739e-05
6.27328e-05
6.346e-05
6.77437e-05
6.91448e-05
9.027e-05
9.42805e-05
6.41967e-05
6.38065e-05
6.90493e-05
6.84572e-05
6.33519e-05
6.86388e-05
6.82161e-05
9.08335e-05
9.37418e-05
6.3403e-05
6.79527e-05
6.80309e-05
9.39669e-05
9.51054e-05
9.88364e-05
6.94707e-05
7.09492e-05
7.48531e-05
7.54888e-05
9.53632e-05
9.83376e-05
7.06641e-05
7.00991e-05
7.54834e-05
7.49158e-05
6.96625e-05
7.48561e-05
7.48131e-05
9.46866e-05
9.83634e-05
6.94171e-05
7.4609e-05
7.46276e-05
9.87353e-05
9.9788e-05
0.000103358
7.66541e-05
7.69808e-05
8.17365e-05
8.17221e-05
9.91127e-05
0.000102698
7.70603e-05
7.65229e-05
8.16566e-05
8.14249e-05
7.67291e-05
8.05768e-05
8.17409e-05
9.93377e-05
0.000103067
7.65828e-05
8.12458e-05
8.15589e-05
0.000103575
0.000104363
0.000108013
8.36518e-05
8.36614e-05
8.95796e-05
8.94585e-05
0.000103768
0.000107736
8.35575e-05
8.33558e-05
8.96046e-05
8.90416e-05
8.36565e-05
8.88408e-05
9.00763e-05
0.000104058
0.000107587
8.3409e-05
8.89175e-05
8.98009e-05
0.000107708
0.000108696
0.000110489
9.1135e-05
9.0857e-05
9.45269e-05
9.37678e-05
0.000108459
0.000110404
9.11113e-05
9.04213e-05
9.39432e-05
9.35153e-05
9.17033e-05
9.38716e-05
9.43417e-05
0.000108289
0.000110397
9.15187e-05
9.38313e-05
9.44751e-05
0.000110519
0.000111316
0.000118928
9.64057e-05
9.55944e-05
0.000105091
0.000104428
0.000111285
0.000118945
9.56691e-05
9.54429e-05
0.000104291
0.000104489
9.58912e-05
0.00010437
0.000104074
0.000111325
0.000119041
9.60682e-05
0.000104591
0.000104264
0.000118635
0.000120956
0.000128431
0.000108765
0.000108154
0.000119316
0.000118922
0.000120969
0.000128457
0.000107968
0.000108301
0.000118728
0.000119187
0.000107693
0.000118953
0.000118663
0.00012107
0.000128568
0.000107891
0.000119162
0.000118816
0.000128316
0.000129326
0.00013034
0.000121348
0.000121024
0.000122723
0.000122467
0.000129357
0.000130378
0.00012086
0.00012126
0.000122329
0.000122648
0.000120936
0.000122626
0.000122638
0.000129455
0.00013043
0.000121062
0.000122731
0.000122737
0.000130517
0.000130242
0.000124712
0.000122612
0.000122361
0.000117539
0.000117356
0.000130279
0.000124706
0.000122224
0.000122531
0.000117254
0.000117345
0.000122552
0.000117462
0.000117669
0.000130324
0.000124686
0.00012265
0.000117518
0.000117758
0.000124898
0.00012406
0.000117564
0.000114755
0.000114576
0.000107579
0.000107415
0.000124048
0.000117506
0.000114492
0.000114553
0.00010738
0.000107393
0.000114831
0.000107427
0.000107541
0.000124029
0.000117509
0.000114912
0.000107481
0.000107596
0.00011759
0.000117164
0.000116693
0.000106107
0.000105951
0.000104919
0.00010484
0.000117104
0.000116647
0.000105925
0.000105934
0.000104848
0.000104857
0.000106049
0.000104799
0.000104808
0.000117107
0.000116671
0.000106095
0.000104839
0.0001048
0.000116654
0.000117377
0.000120811
0.000106914
0.000106849
0.000112742
0.000112705
0.00011734
0.000120801
0.000106846
0.000106868
0.000112689
0.000112727
0.00010683
0.000112693
0.000112713
0.000117364
0.000120821
0.000106818
0.000112721
0.000112701
0.000120806
0.000121953
0.00013108
0.00011554
0.000115512
0.000127782
0.000127771
0.000121946
0.000131079
0.000115498
0.000115533
0.000127762
0.000127786
0.000115522
0.000127773
0.000127783
0.000121964
0.00013109
0.000115511
0.000127787
0.000127778
0.000131084
0.000133383
0.000144769
0.000132767
0.000132758
0.00014787
0.000147866
0.000133383
0.000144769
0.000132753
0.000132771
0.000147869
0.000147871
0.000132771
0.000147875
0.000147879
0.000133391
0.00014477
0.000132769
0.000147884
0.000147883
0.000144774
0.000146779
0.000154943
0.000152456
0.000152452
0.000163764
0.000163761
0.00014678
0.000154944
0.000152458
0.000152455
0.000163773
0.000163757
0.000152466
0.000163777
0.000163774
0.00014678
0.00015494
0.000152471
0.000163782
0.000163783
0.000154946
0.000156149
0.000160526
0.000166656
0.000166653
0.000172905
0.000172899
0.00015615
0.000160528
0.000166666
0.000166648
0.000172915
0.000172894
0.000166666
0.000172922
0.000172914
0.000156146
0.000160523
0.000166675
0.000172924
0.000172925
0.00016053
0.000161068
0.000162925
0.0001743
0.000174293
0.000177039
0.000177032
0.000161071
0.000162929
0.000174311
0.000174289
0.000177051
0.000177029
0.000174309
0.000177063
0.00017705
0.000161066
0.000162923
0.000174321
0.000177062
0.000177063
0.000162931
0.000163114
0.000163939
0.000177609
0.000177602
0.000178717
0.000178711
0.000163117
0.000163944
0.000177622
0.000177598
0.000178731
0.000178706
0.00017762
0.000178745
0.000178728
0.000163112
0.000163937
0.000177633
0.000178742
0.000178743
0.000163945
0.000163964
0.000164356
0.00017895
0.000178945
0.00017937
0.000179365
0.000163969
0.000164362
0.000178965
0.000178939
0.000179384
0.000179358
0.000178961
0.000179398
0.00017938
0.000163961
0.000164353
0.000178977
0.000179394
0.000179395
0.000164361
0.000164302
0.000164492
0.000179431
0.000179426
0.000179468
0.000179463
0.000164308
0.000164497
0.000179445
0.000179418
0.000179483
0.000179456
0.000179441
0.000179496
0.000179479
0.000164299
0.000164488
0.000179457
0.000179492
0.000179494
0.000164497
0.000164391
0.000164311
0.000179443
0.000179437
0.000179403
0.000179397
0.000164395
0.000164316
0.000179457
0.000179431
0.000179417
0.000179391
0.000179454
0.00017943
0.000179414
0.000164388
0.000164309
0.000179469
0.000179428
0.000179429
0.000164318
0.000164228
0.000164482
0.000179414
0.000179409
0.000179498
0.000179493
0.000164233
0.000164489
0.000179428
0.000179402
0.000179511
0.000179485
0.000179425
0.000179526
0.000179507
0.000164226
0.00016448
0.000179441
0.000179521
0.000179522
0.000164488
0.000164413
0.000164422
0.000179502
0.000179497
0.000179461
0.000179455
0.00016442
0.000164425
0.000179516
0.000179489
0.000179475
0.000179447
0.000179512
0.000179488
0.000179469
0.00016441
0.000164416
0.000179527
0.000179483
0.000179485
0.000164423
0.000164314
0.000164373
0.000179449
0.000179444
0.000179447
0.000179443
0.000164316
0.000164383
0.000179464
0.000179437
0.00017946
0.000179435
0.000179459
0.000179476
0.000179459
0.000164308
0.000164376
0.000179475
0.000179473
0.000179476
0.000164385
0.00016432
0.000164478
0.000179467
0.000179463
0.00017948
0.000179474
0.00016433
0.000164476
0.00017948
0.000179455
0.000179494
0.000179467
0.000179478
0.000179507
0.000179489
0.000164323
0.000164467
0.000179495
0.000179502
0.000179502
0.000164474
0.000164368
0.00016436
0.000179461
0.000179455
0.000179454
0.00017945
0.000164366
0.000164373
0.000179475
0.000179448
0.000179467
0.000179442
0.000179471
0.000179483
0.000179465
0.000164357
0.000164365
0.000179484
0.00017948
0.000179481
0.000164373
0.000164312
0.000164464
0.000179467
0.000179463
0.000179465
0.000179459
0.000164326
0.000164458
0.000179481
0.000179455
0.000179479
0.000179452
0.000179477
0.000179491
0.000179474
0.000164317
0.000164451
0.000179493
0.000179488
0.00017949
0.000164461
0.000164353
0.000164398
0.00017946
0.000179455
0.000179464
0.000179461
0.000164347
0.00016442
0.000179473
0.000179446
0.000179477
0.000179452
0.00017947
0.000179494
0.000179475
0.00016434
0.000164408
0.000179486
0.000179487
0.000179488
0.000164413
0.000164345
0.000164403
0.000179465
0.000179461
0.000179463
0.000179457
0.000164363
0.000164395
0.000179479
0.000179452
0.000179477
0.00017945
0.000179475
0.000179491
0.000179473
0.000164352
0.000164388
0.000179489
0.000179487
0.000179489
0.000164399
0.000164294
0.000164471
0.000179463
0.000179459
0.000179464
0.000179459
0.000164289
0.000164484
0.000179476
0.00017945
0.000179476
0.00017945
0.000179473
0.000179492
0.000179474
0.000164282
0.000164475
0.00017949
0.000179487
0.000179489
0.000164482
0.000164396
0.000164368
0.000179462
0.000179457
0.000179466
0.000179462
0.0001644
0.000164389
0.000179476
0.000179449
0.000179476
0.000179452
0.000179473
0.000179494
0.000179476
0.000164389
0.000164388
0.000179487
0.000179491
0.000179492
0.000164389
0.000164316
0.000164393
0.000179466
0.000179462
0.000179461
0.000179456
0.000164341
0.000164389
0.000179476
0.000179452
0.000179476
0.000179449
0.000179476
0.000179491
0.000179473
0.00016434
0.000164373
0.000179492
0.000179486
0.000179487
0.000164385
0.000164287
0.000164472
0.000179463
0.000179459
0.000179463
0.000179458
0.000164286
0.00016446
0.000179476
0.000179452
0.000179476
0.000179448
0.000179476
0.000179491
0.000179472
0.000164276
0.000164437
0.00017949
0.000179486
0.000179487
0.00016445
0.000164364
0.000164443
0.000179461
0.000179457
0.000179465
0.000179462
0.000164344
0.000164474
0.000179474
0.000179448
0.000179478
0.000179453
0.000179471
0.000179497
0.000179478
0.000164322
0.000164469
0.000179486
0.000179494
0.000179494
0.000164477
0.000164379
0.000164366
0.000179465
0.000179459
0.000179462
0.000179461
0.000164391
0.000164427
0.000179478
0.00017945
0.000179475
0.000179452
0.000179471
0.000179497
0.000179476
0.000164381
0.000164424
0.000179487
0.000179491
0.00017949
0.000164409
0.00016431
0.000164388
0.000179463
0.000179462
0.000179462
0.000179459
0.000164373
0.000164371
0.000179476
0.000179452
0.000179476
0.000179451
0.000179482
0.00017949
0.000179469
0.000164367
0.000164364
0.000179496
0.000179485
0.000179484
0.000164381
0.000164284
0.000164452
0.000179462
0.000179462
0.000179463
0.000179458
0.000164307
0.000164401
0.000179476
0.000179453
0.000179477
0.00017945
0.000179469
0.000179493
0.000179475
0.000164305
0.000164384
0.000179484
0.000179488
0.00017949
0.000164402
0.000164337
0.000164467
0.000179463
0.000179459
0.000179463
0.000179461
0.000164292
0.000164483
0.000179476
0.000179452
0.000179476
0.000179451
0.000179475
0.000179494
0.000179478
0.00016428
0.000164451
0.00017949
0.000179489
0.000179494
0.000164489
0.000164378
0.000164441
0.000179463
0.00017946
0.00017947
0.00017946
0.000164378
0.000164441
0.000179476
0.000179451
0.000179481
0.000179452
0.000179477
0.000179494
0.000179474
0.000164337
0.000164443
0.000179492
0.000179489
0.000179488
0.000164408
0.000164384
0.000164361
0.00017947
0.000179461
0.000179463
0.000179462
0.000164373
0.000164452
0.000179481
0.000179451
0.000179476
0.000179454
0.000179478
0.000179498
0.000179477
0.00016434
0.000164452
0.000179495
0.000179489
0.000179488
0.000164397
0.000164274
0.00016445
0.000179464
0.000179461
0.00017947
0.000179465
0.000164376
0.000164443
0.000179477
0.000179451
0.000179483
0.000179456
0.000179476
0.000179499
0.000179478
0.000164336
0.000164457
0.000179487
0.000179495
0.000179496
0.000164483
0.000164353
0.000164373
0.00017947
0.000179467
0.000179461
0.000179458
0.000164383
0.000164371
0.000179483
0.000179458
0.000179476
0.000179449
0.000179478
0.000179493
0.000179475
0.000164388
0.000164357
0.000179494
0.000179486
0.000179492
0.000164416
0.00016427
0.000164468
0.000179464
0.00017946
0.000179463
0.000179458
0.000164285
0.000164459
0.000179478
0.000179452
0.000179477
0.000179451
0.000179478
0.000179494
0.000179474
0.000164288
0.000164435
0.000179497
0.000179487
0.000179487
0.000164374
0.000164352
0.000164441
0.000179462
0.000179458
0.000179463
0.000179459
0.000164345
0.000164455
0.000179476
0.000179451
0.000179477
0.00017945
0.000179475
0.000179494
0.000179476
0.00016433
0.000164381
0.000179488
0.000179487
0.00017949
0.000164462
0.000164381
0.00016436
0.000179465
0.000179461
0.000179462
0.000179458
0.000164392
0.000164364
0.000179478
0.000179452
0.000179474
0.000179449
0.000179475
0.000179491
0.000179476
0.000164317
0.000164378
0.000179488
0.000179485
0.000179489
0.00016447
0.000164289
0.000164408
0.000179464
0.00017946
0.000179464
0.00017946
0.000164293
0.000164425
0.000179476
0.00017945
0.000179476
0.000179451
0.000179477
0.000179491
0.000179472
0.000164277
0.000164449
0.00017949
0.000179487
0.000179488
0.000164397
0.000164301
0.00016446
0.000179465
0.000179461
0.000179461
0.000179459
0.000164316
0.000164466
0.000179476
0.000179451
0.000179476
0.00017945
0.000179476
0.000179491
0.000179471
0.000164337
0.000164457
0.000179491
0.000179486
0.000179486
0.000164384
0.000164355
0.000164456
0.000179464
0.000179462
0.000179462
0.00017946
0.00016437
0.000164466
0.000179478
0.000179452
0.000179475
0.000179448
0.000179473
0.000179491
0.000179471
0.000164375
0.000164427
0.00017949
0.000179484
0.000179484
0.000164421
0.000164381
0.000164409
0.000179463
0.00017946
0.000179462
0.000179459
0.000164387
0.000164415
0.000179478
0.000179452
0.000179474
0.000179446
0.000179473
0.00017949
0.000179471
0.000164369
0.000164364
0.000179487
0.000179485
0.000179486
0.000164465
0.000164355
0.000164383
0.000179467
0.000179465
0.000179459
0.000179454
0.000164363
0.000164375
0.000179478
0.000179451
0.000179474
0.000179446
0.000179474
0.000179486
0.000179471
0.000164311
0.000164379
0.000179488
0.000179481
0.000179484
0.000164445
0.000164326
0.000164371
0.000179465
0.00017946
0.000179459
0.000179457
0.000164277
0.000164465
0.000179479
0.000179451
0.000179472
0.000179447
0.000179476
0.000179488
0.000179469
0.000164276
0.000164454
0.00017949
0.000179481
0.000179481
0.000164393
0.000164299
0.000164393
0.000179466
0.000179461
0.000179459
0.000179456
0.000164351
0.00016446
0.000179481
0.000179453
0.000179471
0.000179447
0.000179477
0.000179488
0.000179468
0.000164341
0.000164455
0.000179489
0.000179483
0.000179482
0.000164372
0.00016429
0.000164473
0.000179467
0.000179465
0.000179461
0.000179454
0.000164392
0.000164388
0.00017948
0.000179456
0.000179476
0.000179447
0.000179478
0.000179486
0.000179468
0.000164384
0.000164386
0.000179491
0.000179482
0.000179482
0.000164381
0.000164376
0.000164419
0.000179472
0.000179468
0.000179462
0.000179456
0.000164341
0.000164383
0.000179486
0.000179461
0.000179475
0.000179447
0.00017948
0.000179489
0.000179472
0.000164339
0.000164374
0.000179495
0.000179482
0.000179484
0.000164395
0.000164363
0.000164387
0.000179479
0.000179472
0.000179476
0.000179472
0.000164292
0.000164423
0.000179492
0.000179464
0.000179492
0.000179466
0.000179487
0.000179505
0.000179486
0.000164286
0.00016441
0.000179501
0.000179499
0.0001795
0.000164413
0.000164305
0.000165192
0.00017946
0.000179455
0.000181505
0.000181505
0.000164324
0.000165212
0.000179476
0.000179448
0.000181522
0.000181498
0.000179469
0.000181531
0.000181515
0.000164313
0.000165202
0.000179482
0.000181526
0.000181531
0.000165208
0.000166387
0.000179636
0.000179635
0.000166396
0.000179652
0.00017963
0.000182304
0.000182302
0.000182314
0.000179645
0.000166388
0.00017966
4.35145e-05
4.63194e-06
2.81609e-05
2.80785e-05
7.31499e-07
2.44541e-06
1.69881e-06
1.58126e-05
5.86253e-07
2.16497e-06
1.64447e-05
3.74582e-06
2.24996e-06
1.68786e-06
1.69083e-06
1.03314e-06
1.35057e-05
9.1067e-07
1.52853e-05
1.09583e-05
1.32393e-05
1.10203e-06
1.3524e-05
9.79259e-07
1.52782e-05
1.48273e-05
1.49568e-05
1.4847e-05
1.45765e-05
1.46506e-05
1.477e-05
1.46697e-05
6.96966e-07
5.4342e-07
6.43373e-06
2.44076e-06
7.13985e-07
6.70474e-07
6.36838e-06
1.0991e-05
1.32011e-05
6.36083e-07
5.91468e-06
4.43414e-07
1.84789e-06
6.13942e-07
5.85379e-06
5.37893e-07
1.5002e-06
1.49413e-06
2.24027e-06
1.70805e-06
1.7045e-06
1.35461e-06
1.8547e-05
1.29142e-06
2.1073e-05
1.72556e-05
1.93667e-05
1.31026e-06
1.85484e-05
1.33163e-06
2.10705e-05
1.47349e-05
1.48496e-05
1.47538e-05
1.49193e-05