/*--------------------------------*- C++ -*----------------------------------*\
| =========                 |                                                 |
| \\      /  F ield         | OpenFOAM: The Open Source CFD Toolbox           |
|  \\    /   O peration     | Version:  v1906                                 |
|   \\  /    A nd           | Web:      www.OpenFOAM.com                      |
|    \\/     M anipulation  |                                                 |
\*---------------------------------------------------------------------------*/
FoamFile
{
    version     2.0;
    format      ascii;
    class       volScalarField;
    location    "212.5";
    object      p;
}
// * * * * * * * * * * * * * * * * * * * * * * * * * * * * * * * * * * * * * //

dimensions      [0 2 -2 0 0 0 0];


internalField   nonuniform List<scalar> 
171728
(
0.00353252
0.00353156
0.0035316
0.00353249
0.00349677
0.00349532
0.00349532
0.00349831
0.00345915
0.0034572
0.00345726
0.00345957
0.00341482
0.00341317
0.00341331
0.00341553
0.00336641
0.00336493
0.00336485
0.00336737
0.00331794
0.00331651
0.00331665
0.00331896
0.00326999
0.00326871
0.00326862
0.00327115
0.00322266
0.00322145
0.00322133
0.00322395
0.00317638
0.00317532
0.00317519
0.00317778
0.00313112
0.00313015
0.00313017
0.00313262
0.00308674
0.00308587
0.00308583
0.00308834
0.00304308
0.00304224
0.00304245
0.00304481
0.00299999
0.00299927
0.00299922
0.00300173
0.00295726
0.00295685
0.00295665
0.00295926
0.00291492
0.00291421
0.00291436
0.0029169
0.00287284
0.00287238
0.00287244
0.0028749
0.00283114
0.00283087
0.00283082
0.00283314
0.00278971
0.00278933
0.00278949
0.00279185
0.00274868
0.00274814
0.00274817
0.00275044
0.00270802
0.00270768
0.00270762
0.00270993
0.00266764
0.00266757
0.0026674
0.00266945
0.00262762
0.00262737
0.00262753
0.00262959
0.00258784
0.00258765
0.00258742
0.00258937
0.00254836
0.00254821
0.00254834
0.00255061
0.00250907
0.00250892
0.00250883
0.00251064
0.00247013
0.00247001
0.00247003
0.00247216
0.00243141
0.00243131
0.00243132
0.00243362
0.00239291
0.00239283
0.0023928
0.00239504
0.00235462
0.00235457
0.00235456
0.00235689
0.00231654
0.00231652
0.00231651
0.00231881
0.00227863
0.00227868
0.00227867
0.00228092
0.00224088
0.00224096
0.00224098
0.00224316
0.00220335
0.00220347
0.00220346
0.00220561
0.00216594
0.00216614
0.00216616
0.00216822
0.00212878
0.00212893
0.00212892
0.00213098
0.00209176
0.00209192
0.00209197
0.00209396
0.00205495
0.00205514
0.00205509
0.00205712
0.00201836
0.00201846
0.00201851
0.0020205
0.00198199
0.00198208
0.00198207
0.00198408
0.00194593
0.00194597
0.00194597
0.00194793
0.00191025
0.00191026
0.00191026
0.0019122
0.00187507
0.00187502
0.001875
0.00187692
0.00184026
0.00184019
0.0018402
0.00184214
0.00180625
0.00180616
0.00180615
0.00180805
0.00177232
0.00177202
0.001772
0.00177389
0.00173695
0.00173667
0.00173667
0.0017387
0.00170012
0.00170011
0.00170011
0.0017023
0.00166289
0.00166319
0.00166319
0.00166547
0.00162719
0.00162741
0.0016274
0.00162959
0.00159342
0.00159311
0.00159311
0.00159507
0.00156106
0.00156045
0.00156045
0.00156222
0.00152949
0.00152857
0.00152857
0.00153018
0.00149729
0.00149641
0.00149641
0.00149802
0.00146399
0.00146343
0.00146343
0.00146517
0.00142971
0.00142942
0.00142942
0.00143131
0.00139469
0.00139456
0.00139456
0.00139654
0.00135922
0.00135915
0.00135915
0.00136118
0.00132349
0.00132346
0.00132346
0.00132551
0.00128768
0.00128765
0.00128765
0.00128971
0.00125185
0.00125182
0.00125182
0.00125388
0.00121601
0.00121598
0.00121598
0.00121804
0.00118016
0.00118013
0.00118013
0.0011822
0.00114432
0.00114429
0.00114429
0.00114636
0.00110847
0.00110844
0.00110844
0.00111051
0.00107263
0.0010726
0.0010726
0.00107467
0.00103679
0.00103676
0.00103676
0.00103882
0.00100094
0.00100091
0.00100091
0.00100298
0.000965096
0.000965068
0.000965068
0.000967133
0.000929252
0.000929223
0.000929222
0.000931287
0.000893408
0.000893379
0.000893379
0.000895445
0.000857564
0.000857537
0.000857538
0.000859603
0.000821721
0.000821692
0.000821692
0.000823756
0.000785877
0.000785847
0.000785847
0.000787912
0.000750034
0.000750007
0.000750007
0.000752072
0.00071419
0.000714162
0.000714162
0.000716227
0.000678346
0.000678317
0.000678317
0.000680383
0.000642503
0.000642474
0.000642474
0.000644538
0.000606659
0.00060663
0.000606631
0.000608697
0.000570815
0.000570785
0.000570785
0.000572851
0.000534971
0.000534943
0.000534942
0.000537006
0.000499127
0.0004991
0.000499101
0.000501165
0.000463283
0.000463254
0.000463254
0.00046532
0.000427439
0.000427409
0.00042741
0.000429473
0.000391595
0.000391568
0.000391566
0.00039363
0.000355751
0.000355723
0.000355721
0.000357787
0.000319907
0.000319878
0.000319879
0.000321943
0.000284063
0.000284033
0.000284035
0.000286096
0.000248219
0.000248191
0.000248191
0.00025025
0.000212376
0.000212348
0.000212349
0.000214405
0.000176531
0.000176504
0.000176502
0.000178558
0.000140685
0.00014066
0.000140658
0.000142704
0.00010483
0.000104813
0.000104812
0.000106839
6.89824e-05
6.89594e-05
6.89593e-05
7.09523e-05
3.39343e-05
3.33763e-05
3.33734e-05
3.52002e-05
5.79996e-06
6.40041e-06
6.40008e-06
4.94729e-06
0.00353728
0.00353503
0.00353504
0.00353727
0.00353503
0.0035351
0.00354107
0.00354105
0.00354106
0.00354106
0.00353504
0.00353507
0.00353734
0.00353516
0.00353507
0.0035373
0.00353249
0.00350306
0.00353155
0.00353156
0.0035049
0.0035049
0.0035325
0.00350303
0.00353156
0.00353158
0.0035049
0.00350486
0.00353157
0.00350487
0.00350485
0.00353252
0.00350306
0.00353156
0.00350484
0.00350489
0.00350305
0.00349829
0.00346502
0.00349532
0.00349529
0.00346724
0.00346726
0.00349828
0.00346503
0.0034953
0.00349529
0.00346725
0.00346724
0.00349538
0.00346725
0.00346721
0.0034983
0.00346504
0.00349532
0.00346728
0.00346724
0.00346503
0.00345953
0.00342175
0.00345716
0.00345718
0.00342484
0.00342483
0.00345956
0.00342175
0.00345715
0.0034572
0.00342484
0.00342483
0.00345722
0.00342485
0.00342483
0.00345957
0.00342176
0.0034572
0.00342478
0.00342482
0.00342175
0.00341552
0.00337384
0.0034132
0.00341319
0.00337707
0.00337706
0.00341551
0.00337387
0.00341323
0.00341322
0.00337709
0.0033771
0.0034132
0.00337709
0.00337709
0.00341555
0.00337386
0.00341321
0.00337715
0.00337709
0.00337385
0.00336736
0.00332535
0.00336489
0.00336493
0.0033285
0.0033285
0.00336739
0.00332534
0.00336487
0.00336489
0.0033285
0.00332852
0.00336491
0.0033285
0.00332851
0.00336738
0.00332535
0.0033649
0.00332851
0.00332853
0.00332535
0.00331896
0.00327746
0.00331652
0.00331649
0.00328061
0.00328062
0.00331895
0.00327743
0.00331652
0.0033165
0.00328062
0.00328063
0.00331652
0.00328064
0.00328062
0.00331898
0.00327748
0.0033165
0.00328079
0.00328062
0.00327746
0.00327114
0.00323015
0.00326869
0.00326871
0.0032332
0.0032332
0.00327113
0.00323017
0.0032687
0.00326872
0.00323319
0.0032332
0.0032687
0.0032332
0.00323319
0.00327116
0.00323017
0.0032687
0.00323322
0.00323318
0.00323015
0.00322394
0.00318382
0.00322145
0.00322144
0.00318674
0.0031867
0.00322396
0.00318382
0.00322145
0.00322148
0.00318672
0.00318672
0.00322146
0.00318672
0.00318674
0.00322395
0.00318386
0.00322145
0.00318676
0.00318674
0.00318383
0.00317777
0.00313854
0.00317529
0.00317532
0.00314135
0.00314132
0.00317778
0.0031385
0.0031753
0.00317534
0.00314134
0.00314133
0.0031753
0.00314134
0.00314135
0.0031778
0.00313858
0.00317529
0.00314141
0.00314134
0.00313853
0.00313262
0.00309412
0.00313012
0.00313015
0.00309683
0.00309681
0.0031326
0.00309408
0.00313013
0.00313011
0.00309684
0.00309682
0.00313013
0.00309682
0.00309685
0.00313265
0.0030941
0.00313014
0.00309677
0.00309682
0.00309412
0.00308834
0.00305043
0.00308587
0.00308585
0.0030531
0.00305318
0.00308832
0.00305042
0.00308589
0.00308588
0.00305313
0.00305322
0.00308586
0.00305317
0.00305315
0.00308836
0.00305052
0.00308585
0.00305326
0.00305318
0.00305051
0.00304474
0.00300737
0.0030423
0.00304222
0.00301007
0.00301011
0.00304471
0.00300729
0.0030423
0.00304239
0.00301009
0.00301014
0.00304235
0.0030101
0.00301005
0.00304482
0.00300741
0.00304236
0.00301009
0.00301006
0.00300739
0.00300171
0.00296465
0.0029993
0.00299929
0.00296739
0.00296754
0.00300168
0.00296492
0.00299929
0.00299929
0.00296742
0.00296747
0.00299934
0.00296756
0.00296738
0.00300174
0.00296472
0.00299934
0.00296747
0.00296735
0.00296485
0.00295905
0.00292242
0.00295671
0.00295684
0.00292508
0.00292477
0.0029593
0.00292218
0.00295673
0.00295666
0.00292505
0.00292511
0.00295683
0.00292475
0.00292485
0.00295914
0.00292236
0.00295682
0.00292515
0.00292486
0.00292233
0.00291694
0.00288026
0.00291461
0.00291416
0.00288296
0.00288298
0.00291673
0.00288031
0.00291458
0.00291438
0.00288289
0.00288305
0.00291451
0.00288293
0.00288287
0.00291682
0.0028803
0.00291452
0.00288306
0.00288291
0.00288034
0.00287486
0.00283863
0.00287255
0.0028724
0.00284111
0.00284107
0.0028748
0.00283862
0.00287254
0.00287243
0.00284113
0.00284126
0.00287255
0.00284111
0.00284106
0.00287483
0.00283853
0.00287252
0.00284128
0.00284108
0.0028385
0.00283332
0.00279694
0.00283099
0.00283089
0.00279931
0.00279936
0.00283325
0.00279701
0.00283095
0.00283082
0.00279944
0.00279959
0.00283081
0.00279943
0.00279953
0.00283314
0.00279714
0.00283077
0.00279959
0.00279951
0.00279712
0.00279164
0.00275587
0.00278928
0.00278928
0.00275852
0.00275852
0.00279171
0.00275584
0.00278925
0.00278954
0.00275857
0.00275849
0.00278943
0.00275851
0.00275857
0.00279188
0.00275582
0.00278942
0.00275848
0.00275856
0.00275572
0.00275061
0.00271514
0.0027483
0.00274814
0.0027178
0.00271799
0.00275055
0.00271495
0.00274828
0.00274823
0.00271779
0.00271787
0.00274812
0.00271798
0.00271806
0.00275054
0.00271504
0.00274812
0.00271789
0.00271805
0.00271507
0.00270995
0.00267458
0.00270772
0.00270765
0.00267738
0.00267752
0.0027098
0.00267458
0.00270772
0.00270761
0.00267736
0.00267756
0.00270782
0.0026775
0.00267743
0.00270983
0.00267454
0.00270781
0.00267755
0.00267743
0.00267457
0.00266932
0.00263445
0.00266717
0.00266757
0.00263759
0.00263723
0.00266961
0.00263446
0.00266716
0.00266742
0.0026376
0.00263735
0.00266741
0.00263724
0.0026374
0.00266945
0.00263454
0.00266739
0.00263736
0.00263741
0.00263453
0.00262945
0.00259459
0.00262748
0.00262737
0.00259729
0.00259744
0.00262936
0.0025947
0.00262749
0.00262754
0.00259728
0.00259744
0.00262755
0.00259745
0.0025974
0.00262956
0.00259458
0.00262756
0.00259743
0.0025974
0.00259459
0.00258936
0.00255539
0.00258753
0.00258766
0.00255818
0.00255815
0.00258962
0.00255535
0.00258751
0.00258744
0.00255818
0.00255821
0.0025874
0.00255816
0.00255829
0.00258942
0.00255542
0.00258738
0.00255822
0.00255828
0.0025556
0.00255022
0.0025158
0.00254818
0.00254819
0.00251869
0.00251868
0.00255025
0.00251577
0.00254819
0.00254834
0.00251868
0.00251864
0.00254836
0.00251868
0.00251858
0.00255051
0.00251575
0.00254836
0.00251865
0.00251859
0.00251559
0.00251091
0.00247702
0.00250893
0.00250892
0.0024797
0.00247971
0.00251086
0.00247707
0.00250893
0.00250883
0.00247969
0.00247971
0.00250887
0.0024797
0.0024797
0.00251068
0.00247711
0.00250886
0.00247971
0.00247971
0.00247716
0.0024721
0.00243857
0.00247001
0.00247001
0.00244098
0.00244098
0.00247212
0.00243857
0.00247001
0.00247003
0.00244098
0.00244097
0.00246999
0.00244099
0.00244099
0.00247221
0.00243854
0.00246999
0.00244097
0.00244099
0.00243853
0.00243361
0.00239997
0.00243131
0.00243131
0.00240243
0.00240242
0.00243362
0.00239998
0.0024313
0.00243131
0.00240241
0.00240241
0.00243133
0.00240242
0.00240241
0.00243358
0.00240001
0.00243134
0.00240241
0.0024024
0.00239999
0.00239504
0.00236183
0.00239282
0.00239284
0.00236412
0.0023641
0.00239505
0.00236181
0.00239282
0.00239281
0.00236413
0.00236411
0.00239282
0.00236411
0.00236411
0.00239508
0.00236178
0.00239281
0.00236411
0.00236411
0.0023618
0.00235691
0.00232369
0.00235457
0.00235456
0.002326
0.00232602
0.00235688
0.00232372
0.00235457
0.00235456
0.00232599
0.002326
0.00235456
0.00232601
0.00232601
0.00235687
0.00232373
0.00235456
0.00232601
0.00232601
0.00232372
0.00231877
0.00228585
0.00231652
0.00231653
0.00228812
0.0022881
0.00231882
0.0022858
0.00231652
0.00231652
0.00228813
0.00228812
0.00231652
0.00228809
0.00228811
0.00231881
0.00228584
0.00231651
0.00228811
0.00228811
0.00228583
0.00228095
0.00224806
0.00227867
0.00227868
0.00225037
0.00225038
0.0022809
0.00224808
0.00227867
0.00227866
0.00225036
0.00225037
0.00227867
0.00225039
0.00225038
0.00228093
0.00224807
0.00227867
0.00225038
0.00225037
0.00224806
0.00224315
0.00221052
0.00224096
0.00224095
0.00221285
0.00221284
0.00224317
0.00221049
0.00224097
0.00224098
0.00221286
0.00221284
0.00224096
0.00221282
0.00221283
0.00224317
0.00221049
0.00224096
0.00221283
0.00221283
0.0022105
0.00220564
0.00217306
0.0022035
0.00220349
0.00217543
0.00217542
0.0022056
0.00217308
0.0022035
0.00220347
0.00217543
0.00217546
0.00220348
0.00217547
0.00217547
0.0022056
0.00217312
0.00220348
0.00217548
0.00217546
0.0021731
0.00216817
0.00213586
0.0021661
0.0021661
0.00213824
0.00213824
0.00216819
0.00213587
0.0021661
0.00216615
0.00213824
0.00213822
0.00216615
0.00213822
0.00213821
0.00216824
0.00213584
0.00216614
0.00213821
0.00213821
0.00213585
0.00213099
0.00209879
0.00212895
0.00212897
0.00210115
0.00210117
0.002131
0.00209879
0.00212897
0.00212893
0.00210119
0.00210119
0.00212893
0.00210116
0.00210118
0.00213097
0.00209884
0.00212894
0.00210121
0.00210118
0.00209881
0.00209394
0.00206194
0.00209192
0.00209192
0.00206431
0.00206432
0.00209393
0.00206198
0.00209194
0.00209196
0.00206426
0.00206429
0.00209195
0.00206432
0.00206431
0.00209398
0.00206193
0.00209195
0.00206428
0.00206431
0.00206196
0.0020571
0.00202529
0.00205512
0.00205515
0.00202762
0.00202764
0.00205714
0.00202528
0.00205507
0.0020551
0.0020276
0.00202764
0.00205513
0.00202762
0.00202764
0.0020571
0.00202531
0.00205512
0.00202764
0.00202764
0.00202531
0.00202048
0.0019889
0.00201849
0.00201849
0.00199119
0.00199117
0.00202046
0.00198889
0.00201848
0.0020185
0.00199118
0.00199115
0.0020185
0.00199115
0.00199118
0.00202049
0.00198886
0.00201851
0.00199115
0.00199118
0.00198888
0.0019841
0.00195272
0.00198211
0.00198209
0.00195498
0.00195493
0.00198409
0.00195269
0.0019821
0.00198207
0.00195498
0.00195496
0.00198209
0.00195497
0.00195493
0.00198406
0.00195271
0.00198208
0.00195496
0.00195494
0.00195268
0.00194796
0.00191693
0.00194598
0.00194592
0.00191915
0.00191913
0.00194793
0.00191694
0.00194599
0.00194597
0.00191915
0.00191915
0.00194595
0.00191914
0.00191914
0.00194795
0.00191695
0.00194596
0.00191915
0.00191914
0.00191691
0.00191222
0.0018816
0.00191026
0.00191026
0.00188378
0.0018838
0.00191224
0.00188162
0.00191026
0.00191026
0.00188377
0.00188377
0.00191024
0.00188379
0.00188374
0.00191223
0.00188159
0.00191024
0.00188377
0.00188374
0.00188158
0.00187694
0.00184673
0.001875
0.00187502
0.00184883
0.00184885
0.00187696
0.00184673
0.00187499
0.00187499
0.00184881
0.00184883
0.00187497
0.00184884
0.00184881
0.00187693
0.00184674
0.00187498
0.00184884
0.00184883
0.00184673
0.00184214
0.00181256
0.00184019
0.00184021
0.0018146
0.00181463
0.00184214
0.00181256
0.00184017
0.00184019
0.00181461
0.00181462
0.00184016
0.0018146
0.00181461
0.00184214
0.00181255
0.00184017
0.0018146
0.00181459
0.00181256
0.00180805
0.00177848
0.00180615
0.00180618
0.00178063
0.00178064
0.00180805
0.00177848
0.00180618
0.00180618
0.00178066
0.00178064
0.00180618
0.00178066
0.00178069
0.00180804
0.00177847
0.00180616
0.00178064
0.00178067
0.0017785
0.00177387
0.00174346
0.00177199
0.001772
0.00174562
0.00174562
0.00177387
0.00174346
0.00177202
0.001772
0.00174563
0.00174562
0.00177205
0.00174563
0.00174564
0.00177386
0.00174346
0.00177203
0.00174563
0.00174564
0.00174346
0.0017387
0.00170724
0.00173667
0.00173667
0.00170936
0.00170935
0.00173869
0.00170724
0.00173668
0.00173667
0.00170936
0.00170935
0.00173668
0.00170935
0.00170935
0.0017387
0.00170724
0.00173668
0.00170935
0.00170935
0.00170724
0.00170231
0.00167037
0.00170012
0.00170011
0.00167235
0.00167235
0.0017023
0.00167037
0.00170011
0.00170011
0.00167235
0.00167235
0.00170011
0.00167234
0.00167234
0.0017023
0.00167037
0.00170011
0.00167235
0.00167234
0.00167037
0.00166548
0.00163429
0.0016632
0.00166319
0.00163619
0.0016362
0.00166547
0.00163429
0.00166319
0.00166319
0.00163621
0.00163619
0.00166319
0.00163621
0.00163619
0.00166547
0.00163428
0.00166319
0.0016362
0.00163621
0.00163429
0.00162959
0.00159959
0.00162741
0.00162741
0.00160157
0.00160156
0.00162959
0.00159959
0.00162741
0.0016274
0.00160156
0.00160156
0.0016274
0.00160157
0.00160157
0.00162958
0.00159959
0.00162741
0.00160157
0.00160157
0.00159959
0.00159507
0.00156653
0.00159311
0.00159311
0.00156849
0.00156849
0.00159507
0.00156653
0.00159311
0.00159311
0.00156849
0.00156849
0.00159311
0.00156849
0.00156849
0.00159507
0.00156653
0.00159311
0.00156849
0.00156849
0.00156653
0.00156222
0.00153447
0.00156046
0.00156045
0.00153654
0.00153654
0.00156222
0.00153447
0.00156045
0.00156045
0.00153654
0.00153654
0.00156045
0.00153654
0.00153654
0.00156222
0.00153447
0.00156045
0.00153654
0.00153654
0.00153447
0.00153018
0.00150238
0.00152857
0.00152857
0.00150452
0.00150452
0.00153018
0.00150238
0.00152857
0.00152857
0.00150452
0.00150452
0.00152857
0.00150452
0.00150452
0.00153018
0.00150238
0.00152857
0.00150452
0.00150452
0.00150238
0.00149802
0.00146966
0.00149641
0.00149641
0.00147177
0.00147177
0.00149802
0.00146966
0.00149641
0.00149641
0.00147177
0.00147177
0.00149641
0.00147177
0.00147177
0.00149802
0.00146966
0.00149641
0.00147177
0.00147177
0.00146966
0.00146517
0.00143594
0.00146343
0.00146343
0.00143801
0.00143801
0.00146517
0.00143594
0.00146343
0.00146343
0.00143801
0.00143801
0.00146343
0.00143801
0.00143801
0.00146517
0.00143594
0.00146343
0.00143801
0.00143801
0.00143594
0.00143131
0.00140128
0.00142942
0.00142942
0.00140334
0.00140334
0.00143131
0.00140128
0.00142942
0.00142942
0.00140334
0.00140334
0.00142942
0.00140334
0.00140334
0.00143131
0.00140128
0.00142942
0.00140334
0.00140334
0.00140128
0.00139654
0.00136598
0.00139456
0.00139456
0.00136804
0.00136804
0.00139654
0.00136598
0.00139456
0.00139456
0.00136804
0.00136804
0.00139456
0.00136804
0.00136804
0.00139654
0.00136598
0.00139456
0.00136804
0.00136804
0.00136598
0.00136118
0.00133034
0.00135915
0.00135915
0.0013324
0.0013324
0.00136118
0.00133034
0.00135915
0.00135915
0.0013324
0.0013324
0.00135915
0.0013324
0.0013324
0.00136118
0.00133034
0.00135915
0.0013324
0.0013324
0.00133034
0.00132551
0.00129455
0.00132346
0.00132346
0.0012966
0.0012966
0.00132551
0.00129455
0.00132346
0.00132346
0.0012966
0.0012966
0.00132346
0.0012966
0.0012966
0.00132551
0.00129455
0.00132346
0.0012966
0.0012966
0.00129455
0.00128971
0.00125872
0.00128765
0.00128765
0.00126078
0.00126078
0.00128971
0.00125872
0.00128765
0.00128765
0.00126078
0.00126078
0.00128765
0.00126078
0.00126078
0.00128971
0.00125872
0.00128765
0.00126078
0.00126078
0.00125872
0.00125388
0.00122288
0.00125182
0.00125182
0.00122494
0.00122494
0.00125388
0.00122288
0.00125182
0.00125182
0.00122494
0.00122494
0.00125182
0.00122494
0.00122494
0.00125388
0.00122288
0.00125182
0.00122494
0.00122494
0.00122288
0.00121804
0.00118704
0.00121598
0.00121598
0.00118909
0.00118909
0.00121804
0.00118704
0.00121598
0.00121598
0.00118909
0.00118909
0.00121598
0.00118909
0.00118909
0.00121804
0.00118704
0.00121598
0.00118909
0.00118909
0.00118704
0.0011822
0.0011512
0.00118013
0.00118013
0.00115325
0.00115325
0.0011822
0.0011512
0.00118013
0.00118013
0.00115325
0.00115325
0.00118013
0.00115325
0.00115325
0.0011822
0.0011512
0.00118013
0.00115325
0.00115325
0.0011512
0.00114636
0.00111535
0.00114429
0.00114429
0.00111741
0.0011174
0.00114636
0.00111535
0.00114429
0.00114429
0.00111741
0.00111741
0.00114429
0.00111741
0.00111741
0.00114636
0.00111535
0.00114429
0.0011174
0.0011174
0.00111535
0.00111051
0.00107951
0.00110844
0.00110844
0.00108156
0.00108156
0.00111051
0.00107951
0.00110844
0.00110844
0.00108156
0.00108156
0.00110844
0.00108156
0.00108156
0.00111051
0.00107951
0.00110844
0.00108156
0.00108156
0.00107951
0.00107467
0.00104366
0.0010726
0.0010726
0.00104572
0.00104572
0.00107467
0.00104366
0.0010726
0.0010726
0.00104572
0.00104572
0.0010726
0.00104572
0.00104572
0.00107467
0.00104366
0.0010726
0.00104572
0.00104572
0.00104366
0.00103882
0.00100782
0.00103676
0.00103676
0.00100987
0.00100987
0.00103882
0.00100782
0.00103676
0.00103676
0.00100987
0.00100987
0.00103676
0.00100987
0.00100987
0.00103882
0.00100782
0.00103676
0.00100987
0.00100987
0.00100782
0.00100298
0.000971973
0.00100091
0.00100091
0.000974029
0.000974029
0.00100298
0.000971974
0.00100091
0.00100091
0.000974029
0.000974029
0.00100091
0.000974029
0.000974029
0.00100298
0.000971973
0.00100091
0.000974029
0.000974029
0.000971973
0.000967132
0.000936128
0.000965068
0.000965068
0.000938183
0.000938183
0.000967133
0.000936128
0.000965067
0.000965068
0.000938184
0.000938183
0.000965068
0.000938183
0.000938183
0.000967133
0.000936127
0.000965068
0.000938183
0.000938183
0.000936128
0.000931287
0.000900287
0.000929222
0.000929222
0.000902341
0.000902341
0.000931286
0.000900287
0.000929223
0.000929223
0.00090234
0.00090234
0.000929223
0.000902341
0.000902341
0.000931286
0.000900286
0.000929222
0.000902341
0.000902341
0.000900286
0.000895446
0.000864441
0.000893379
0.000893379
0.000866497
0.000866497
0.000895445
0.000864442
0.000893379
0.000893379
0.000866497
0.000866497
0.000893379
0.000866497
0.000866498
0.000895445
0.000864443
0.000893379
0.000866498
0.000866498
0.000864443
0.000859602
0.000828596
0.000857537
0.000857537
0.000830652
0.000830651
0.000859602
0.000828597
0.000857536
0.000857537
0.000830652
0.000830652
0.000857538
0.000830652
0.000830652
0.000859603
0.000828596
0.000857538
0.000830651
0.000830651
0.000828596
0.000823756
0.000792755
0.000821691
0.000821691
0.00079481
0.000794809
0.000823756
0.000792754
0.000821692
0.000821692
0.000794809
0.000794809
0.000821692
0.00079481
0.00079481
0.000823757
0.000792754
0.000821691
0.00079481
0.00079481
0.000792754
0.000787913
0.000756913
0.000785848
0.000785847
0.000758967
0.000758968
0.000787912
0.000756913
0.000785848
0.000785847
0.000758966
0.000758967
0.000785847
0.000758969
0.000758969
0.000787912
0.000756912
0.000785847
0.000758968
0.000758968
0.000756913
0.000752072
0.000721067
0.000750005
0.000750005
0.000723123
0.000723123
0.000752071
0.000721069
0.000750005
0.000750004
0.000723122
0.000723123
0.000750007
0.000723121
0.000723121
0.000752071
0.000721068
0.000750007
0.000723121
0.000723121
0.000721067
0.000716227
0.000685223
0.000714162
0.000714162
0.000687279
0.000687278
0.000716228
0.000685223
0.000714161
0.000714162
0.000687279
0.000687279
0.000714162
0.000687278
0.000687279
0.000716228
0.000685224
0.000714162
0.000687278
0.000687278
0.000685223
0.000680382
0.000649379
0.000678318
0.000678319
0.000651434
0.000651434
0.000680383
0.000649379
0.000678318
0.000678319
0.000651434
0.000651434
0.000678317
0.000651436
0.000651435
0.000680384
0.000649379
0.000678317
0.000651435
0.000651435
0.000649379
0.000644537
0.000613537
0.000642474
0.000642474
0.000615591
0.000615591
0.000644538
0.000613537
0.000642474
0.000642474
0.000615591
0.00061559
0.000642474
0.000615591
0.000615591
0.000644538
0.000613535
0.000642474
0.00061559
0.000615591
0.000613537
0.000608695
0.000577693
0.00060663
0.000606629
0.000579747
0.000579748
0.000608695
0.000577692
0.00060663
0.000606629
0.000579747
0.000579747
0.000606631
0.000579747
0.000579747
0.000608695
0.00057769
0.000606632
0.000579745
0.000579745
0.000577691
0.000572852
0.000541849
0.000570786
0.000570785
0.000543904
0.000543905
0.000572849
0.00054185
0.000570786
0.000570785
0.000543904
0.000543905
0.000570785
0.000543905
0.000543905
0.00057285
0.000541849
0.000570785
0.000543905
0.000543904
0.000541848
0.000537007
0.000506005
0.000534942
0.000534942
0.000508059
0.00050806
0.000537007
0.000506005
0.000534943
0.000534943
0.000508059
0.000508059
0.000534943
0.000508059
0.00050806
0.000537007
0.000506006
0.000534941
0.00050806
0.000508061
0.000506006
0.000501165
0.000470158
0.0004991
0.0004991
0.000472214
0.000472214
0.000501165
0.000470158
0.0004991
0.000499101
0.000472213
0.000472213
0.0004991
0.000472213
0.000472213
0.000501165
0.000470159
0.0004991
0.000472213
0.000472213
0.00047016
0.000465317
0.000434317
0.000463254
0.000463254
0.000436371
0.000436371
0.000465317
0.000434317
0.000463254
0.000463254
0.000436371
0.00043637
0.000463255
0.000436371
0.00043637
0.000465318
0.000434317
0.000463255
0.000436371
0.00043637
0.000434314
0.000429475
0.000398473
0.000427411
0.00042741
0.000400526
0.000400526
0.000429474
0.000398474
0.00042741
0.000427411
0.000400526
0.000400526
0.000427409
0.000400528
0.000400529
0.000429476
0.000398472
0.000427408
0.000400526
0.000400528
0.000398473
0.000393632
0.000362627
0.000391566
0.000391566
0.000364683
0.000364682
0.000393632
0.000362628
0.000391566
0.000391566
0.000364682
0.000364682
0.000391567
0.000364682
0.000364684
0.000393631
0.000362627
0.000391566
0.000364682
0.000364684
0.000362629
0.000357786
0.000326783
0.000355722
0.000355722
0.000328838
0.000328838
0.000357786
0.000326783
0.000355721
0.000355721
0.000328839
0.00032884
0.000355724
0.000328837
0.000328837
0.000357785
0.000326784
0.000355723
0.00032884
0.000328839
0.000326784
0.000321941
0.00029094
0.000319879
0.000319879
0.000292993
0.000292993
0.00032194
0.000290939
0.000319878
0.000319878
0.000292994
0.000292994
0.000319879
0.000292994
0.000292993
0.000321941
0.00029094
0.00031988
0.000292993
0.000292992
0.000290939
0.000286095
0.000255098
0.000284033
0.000284033
0.000257151
0.000257151
0.000286094
0.000255099
0.000284035
0.000284036
0.000257149
0.000257149
0.000284033
0.000257151
0.00025715
0.000286097
0.000255098
0.000284035
0.00025715
0.000257149
0.000255096
0.000250252
0.000219254
0.000248192
0.000248192
0.000221305
0.000221304
0.000250252
0.000219254
0.000248191
0.000248191
0.000221306
0.000221304
0.00024819
0.000221305
0.000221307
0.000250253
0.000219253
0.000248189
0.000221305
0.000221307
0.000219254
0.000214406
0.000183412
0.000212349
0.000212348
0.00018546
0.000185459
0.000214406
0.000183409
0.000212347
0.000212347
0.000185461
0.000185461
0.000212348
0.00018546
0.000185462
0.000214406
0.000183409
0.000212348
0.000185458
0.00018546
0.000183412
0.000178558
0.000147568
0.000176504
0.000176502
0.000149615
0.000149616
0.000178555
0.000147569
0.000176505
0.000176503
0.000149614
0.000149616
0.000176505
0.000149616
0.000149615
0.000178555
0.000147568
0.000176504
0.000149616
0.000149615
0.00014757
0.000142703
0.000111724
0.000140659
0.000140659
0.000113766
0.000113767
0.000142702
0.000111726
0.00014066
0.00014066
0.000113764
0.000113766
0.000140661
0.000113765
0.000113764
0.000142702
0.000111726
0.000140659
0.000113767
0.000113766
0.000111725
0.000106836
7.58749e-05
0.000104812
0.000104813
7.79095e-05
7.79086e-05
0.000106838
7.58765e-05
0.000104811
0.000104813
7.79088e-05
7.79076e-05
0.000104812
7.79088e-05
7.79079e-05
0.000106838
7.58747e-05
0.000104812
7.79084e-05
7.79089e-05
7.5875e-05
7.0952e-05
4.0086e-05
6.89598e-05
6.89598e-05
4.21221e-05
4.21225e-05
7.0953e-05
4.00873e-05
6.8959e-05
6.89588e-05
4.21205e-05
4.21193e-05
6.89581e-05
4.21217e-05
4.21198e-05
7.0953e-05
4.00832e-05
6.89593e-05
4.21183e-05
4.21177e-05
4.00835e-05
3.52031e-05
8.06937e-06
3.33776e-05
3.33778e-05
1.09672e-05
1.09669e-05
3.52037e-05
8.06942e-06
3.3376e-05
3.33736e-05
1.09681e-05
1.09624e-05
3.33737e-05
1.09673e-05
1.0961e-05
3.52003e-05
8.06629e-06
3.33734e-05
1.0965e-05
1.09653e-05
8.06523e-06
4.9499e-06
6.40078e-06
6.39987e-06
4.95055e-06
6.40011e-06
6.39704e-06
5.79959e-06
5.7989e-06
5.79838e-06
6.39643e-06
4.94882e-06
6.39912e-06
0.00354438
0.00354712
0.00354592
0.00354594
0.00357206
0.00354736
0.0035763
0.00354734
0.00357213
0.00354752
0.00354741
0.00357641
0.00355809
0.00357947
0.0035796
0.00351638
0.00353026
0.00353401
0.00350882
0.00350708
0.00351228
0.0035164
0.00353028
0.00353401
0.00350877
0.00353252
0.00353252
0.00353252
0.00350579
0.00350579
0.00350575
0.00350576
0.00351608
0.00352808
0.00353307
0.00352376
0.00353526
0.00351323
0.00352394
0.00350712
0.0035123
0.00351605
0.00353307
0.0035281
0.00352366
0.00353523
0.00352389
0.0035132
0.00353402
0.00353395
0.00352094
0.00351317
0.00351318
0.00348917
0.00350317
0.0035028
0.0034872
0.00350036
0.00348624
0.0034893
0.00350318
0.00350278
0.00348719
0.00349678
0.00349673
0.00349675
0.00346909
0.0034691
0.00346906
0.00346908
0.00348689
0.00350172
0.00349532
0.0034862
0.00350021
0.00348743
0.00348616
0.00350026
0.00348626
0.00348686
0.00349532
0.00350165
0.00348623
0.00350018
0.00348618
0.00348747
0.00350339
0.00350343
0.0034847
0.00348785
0.00348785
0.00344693
0.00346163
0.00346232
0.00344564
0.00346056
0.00344475
0.0034469
0.00346162
0.0034624
0.00344568
0.00345915
0.00345912
0.00345913
0.0034265
0.00342649
0.00342645
0.00342646
0.00344572
0.00346124
0.00345725
0.0034469
0.00346022
0.00344613
0.00344687
0.00346048
0.0034448
0.00344571
0.00345728
0.00346128
0.00344688
0.00346025
0.00344688
0.00344621
0.0034619
0.00346195
0.00344421
0.00344599
0.00344597
0.00340049
0.00341696
0.00341833
0.00339905
0.00341626
0.0033985
0.00340046
0.00341698
0.00341833
0.00339904
0.00341481
0.00341478
0.00341479
0.00337861
0.00337861
0.00337857
0.00337859
0.00339953
0.00341681
0.00341314
0.00340133
0.00341628
0.00339975
0.00340132
0.00341633
0.00339847
0.0033995
0.0034132
0.00341693
0.00340129
0.00341629
0.00340134
0.00339964
0.00341706
0.00341708
0.00339809
0.00339917
0.00339918
0.00335139
0.00336849
0.0033698
0.0033502
0.00336812
0.00334988
0.00335137
0.00336848
0.00336987
0.0033502
0.00336641
0.00336636
0.00336639
0.00333
0.00332998
0.00332995
0.00332997
0.00335091
0.00336851
0.00336489
0.00335271
0.00336816
0.00335091
0.00335276
0.00336805
0.00334991
0.0033509
0.0033649
0.00336849
0.00335285
0.00336818
0.00335278
0.00335091
0.00336854
0.00336853
0.00334953
0.00335031
0.00335032
0.00330255
0.00331981
0.00332087
0.00330176
0.00331952
0.00330149
0.00330252
0.00331981
0.00332087
0.00330176
0.00331792
0.0033179
0.00331792
0.00328194
0.00328191
0.0032819
0.00328192
0.0033025
0.00331982
0.00331659
0.00330451
0.00331964