/*--------------------------------*- C++ -*----------------------------------*\
| =========                 |                                                 |
| \\      /  F ield         | OpenFOAM: The Open Source CFD Toolbox           |
|  \\    /   O peration     | Version:  v1906                                 |
|   \\  /    A nd           | Web:      www.OpenFOAM.com                      |
|    \\/     M anipulation  |                                                 |
\*---------------------------------------------------------------------------*/
FoamFile
{
    version     2.0;
    format      ascii;
    class       volScalarField;
    location    "187.5";
    object      epsilon;
}
// * * * * * * * * * * * * * * * * * * * * * * * * * * * * * * * * * * * * * //

dimensions      [0 2 -3 0 0 0 0];


internalField   nonuniform List<scalar> 
171728
(
1.28101e-08
4.94941e-09
6.98461e-09
5.0008e-09
1.2731e-08
4.61242e-09
5.17343e-09
4.49838e-09
1.29575e-08
4.32351e-09
4.38225e-09
4.06267e-09
1.31961e-08
4.08799e-09
4.02698e-09
3.72096e-09
1.34473e-08
3.90684e-09
3.81035e-09
3.44557e-09
1.37119e-08
3.77696e-09
3.67171e-09
3.21862e-09
1.39959e-08
3.69629e-09
3.58376e-09
3.029e-09
1.43007e-08
3.66978e-09
3.55781e-09
2.87072e-09
1.46145e-08
3.69103e-09
3.58089e-09
2.76164e-09
1.49437e-08
3.77057e-09
3.65746e-09
2.68346e-09
1.52874e-08
3.90093e-09
3.78532e-09
2.63991e-09
1.56397e-08
4.08696e-09
3.97189e-09
2.63581e-09
1.5997e-08
4.33751e-09
4.22182e-09
2.67482e-09
1.63545e-08
4.67108e-09
4.54535e-09
2.777e-09
1.6714e-08
5.11087e-09
4.96614e-09
2.97276e-09
1.70749e-08
5.68675e-09
5.53047e-09
3.3169e-09
1.74364e-08
6.46115e-09
6.28723e-09
3.89128e-09
1.78055e-08
7.51472e-09
7.34251e-09
4.89916e-09
1.81834e-08
8.99534e-09
8.80279e-09
6.45815e-09
1.8582e-08
1.11168e-08
1.09207e-08
9.31354e-09
1.90038e-08
1.41281e-08
1.39035e-08
1.42166e-08
1.94781e-08
1.83388e-08
1.81221e-08
2.21112e-08
2.00229e-08
2.41812e-08
2.39189e-08
3.54705e-08
2.06468e-08
3.20425e-08
3.15367e-08
5.54932e-08
2.13929e-08
4.25395e-08
4.17337e-08
8.51438e-08
2.22929e-08
5.59644e-08
5.47417e-08
1.26223e-07
2.33783e-08
7.26323e-08
7.07726e-08
1.7913e-07
2.47638e-08
9.30594e-08
9.0095e-08
2.44181e-07
2.65235e-08
1.16552e-07
1.12448e-07
3.18242e-07
2.87045e-08
1.42516e-07
1.38694e-07
3.9853e-07
3.14073e-08
1.71288e-07
1.68374e-07
4.77496e-07
3.47551e-08
2.0339e-07
2.02034e-07
5.52635e-07
3.89226e-08
2.3828e-07
2.387e-07
6.22056e-07
4.40926e-08
2.77892e-07
2.79082e-07
6.84958e-07
5.04035e-08
3.20654e-07
3.21949e-07
7.41561e-07
5.79836e-08
3.66103e-07
3.66823e-07
7.84564e-07
6.70174e-08
4.11386e-07
4.12068e-07
8.21919e-07
7.81053e-08
4.56456e-07
4.57691e-07
8.58604e-07
9.10526e-08
4.97568e-07
4.98438e-07
8.88749e-07
1.04716e-07
5.26788e-07
5.27227e-07
8.97444e-07
1.19805e-07
5.52426e-07
5.52757e-07
8.97694e-07
1.40046e-07
5.88794e-07
5.89071e-07
9.08033e-07
1.70242e-07
6.42859e-07
6.43066e-07
9.39154e-07
2.09278e-07
7.02042e-07
7.02209e-07
9.83544e-07
2.51856e-07
7.5527e-07
7.55406e-07
1.02984e-06
2.89477e-07
7.94714e-07
7.94842e-07
1.06956e-06
3.13148e-07
8.15719e-07
8.15841e-07
1.09265e-06
3.24465e-07
8.24635e-07
8.24749e-07
1.10313e-06
3.28918e-07
8.2795e-07
8.28058e-07
1.1074e-06
3.30441e-07
8.29097e-07
8.29203e-07
1.10906e-06
3.30871e-07
8.29422e-07
8.29529e-07
1.1096e-06
3.30921e-07
8.29396e-07
8.29504e-07
1.10957e-06
3.30938e-07
8.29398e-07
8.29505e-07
1.10942e-06
3.30954e-07
8.29453e-07
8.29559e-07
1.1097e-06
3.3094e-07
8.29401e-07
8.29507e-07
1.10945e-06
3.30944e-07
8.2943e-07
8.29539e-07
1.10962e-06
3.30942e-07
8.29409e-07
8.29515e-07
1.10952e-06
3.30945e-07
8.29421e-07
8.29527e-07
1.10963e-06
3.30945e-07
8.29419e-07
8.29527e-07
1.1095e-06
3.30945e-07
8.29418e-07
8.29522e-07
1.10963e-06
3.30946e-07
8.29423e-07
8.29529e-07
1.10957e-06
3.30946e-07
8.29419e-07
8.29524e-07
1.10951e-06
3.30947e-07
8.29416e-07
8.29522e-07
1.10956e-06
3.30947e-07
8.29422e-07
8.29529e-07
1.10963e-06
3.30947e-07
8.29424e-07
8.29529e-07
1.1096e-06
3.30948e-07
8.29416e-07
8.29523e-07
1.10953e-06
3.30948e-07
8.29422e-07
8.29528e-07
1.10953e-06
3.30948e-07
8.2942e-07
8.29526e-07
1.10957e-06
3.30948e-07
8.29416e-07
8.29522e-07
1.10961e-06
3.30946e-07
8.29421e-07
8.29522e-07
1.10953e-06
3.30946e-07
8.29424e-07
8.29526e-07
1.10962e-06
3.30945e-07
8.29416e-07
8.29521e-07
1.10962e-06
3.30943e-07
8.29415e-07
8.29522e-07
1.10954e-06
3.30942e-07
8.2942e-07
8.2952e-07
1.10959e-06
3.3094e-07
8.29416e-07
8.29515e-07
1.10964e-06
3.3094e-07
8.29414e-07
8.29518e-07
1.10957e-06
3.30939e-07
8.29415e-07
8.29517e-07
1.10948e-06
3.30938e-07
8.29415e-07
8.29516e-07
1.10946e-06
3.30938e-07
8.29415e-07
8.29518e-07
1.1095e-06
3.30937e-07
8.2941e-07
8.29514e-07
1.10955e-06
3.30936e-07
8.29411e-07
8.29512e-07
1.10958e-06
3.30936e-07
8.29412e-07
8.29518e-07
1.10959e-06
3.30936e-07
8.2941e-07
8.29517e-07
1.10957e-06
3.30936e-07
8.29411e-07
8.29516e-07
1.10953e-06
3.30936e-07
8.29415e-07
8.29519e-07
1.10952e-06
3.30936e-07
8.29419e-07
8.29524e-07
1.10953e-06
3.30936e-07
8.29422e-07
8.29528e-07
1.10953e-06
3.30936e-07
8.29429e-07
8.29532e-07
1.10951e-06
3.30936e-07
8.29439e-07
8.29544e-07
1.10951e-06
3.30938e-07
8.29453e-07
8.29559e-07
1.10954e-06
3.30939e-07
8.29471e-07
8.29575e-07
1.10955e-06
3.30942e-07
8.29501e-07
8.29603e-07
1.10952e-06
3.30939e-07
8.2954e-07
8.29644e-07
1.10949e-06
3.30461e-07
8.29254e-07
8.29349e-07
1.10918e-06
3.14403e-07
7.75796e-07
7.75805e-07
1.06387e-06
4.86461e-09
4.36877e-09
4.29536e-09
5.26485e-09
3.79062e-09
4.32397e-09
1.31268e-08
1.32198e-08
1.31688e-08
1.30841e-08
4.35363e-09
3.9395e-09
4.9415e-09
4.43117e-09
4.40513e-09
5.04239e-09
4.8363e-09
4.43646e-09
4.99305e-09
4.91421e-09
4.7159e-09
4.65725e-09
5.23629e-09
4.80271e-09
4.46433e-09
5.01626e-09
4.20562e-09
4.75574e-09
5.5429e-09
4.6945e-09
5.19168e-09
4.90551e-09
4.57204e-09
4.97634e-09
5.52053e-09
4.71252e-09
4.57215e-09
4.38247e-09
4.05905e-09
4.62829e-09
4.57664e-09
4.38967e-09
4.35953e-09
4.76583e-09
4.38919e-09
4.12296e-09
4.67233e-09
3.89734e-09
4.44342e-09
5.05807e-09
4.39076e-09
4.63433e-09
4.50883e-09
4.20163e-09
4.6266e-09
4.51448e-09
4.39723e-09
4.12969e-09
4.0029e-09
3.73232e-09
4.31695e-09
4.29346e-09
4.12248e-09
4.11456e-09
4.33749e-09
4.03426e-09
3.83079e-09
4.37351e-09
3.65664e-09
4.18545e-09
4.49782e-09
4.14136e-09
4.10988e-09
4.14346e-09
3.88505e-09
4.3263e-09
4.10014e-09
4.13446e-09
3.77354e-09
3.68074e-09
3.44821e-09
4.0636e-09
4.06172e-09
3.90891e-09
3.91641e-09
3.98073e-09
3.7327e-09
3.60725e-09
4.12944e-09
3.47657e-09
3.98222e-09
3.99259e-09
3.94772e-09
3.70333e-09
3.83804e-09
3.61955e-09
4.07647e-09
3.85188e-09
3.92096e-09
3.4898e-09
3.40492e-09
3.2179e-09
3.86355e-09
3.87199e-09
3.74313e-09
3.75683e-09
3.68681e-09
3.48106e-09
3.44131e-09
3.94127e-09
3.35098e-09
3.83374e-09
3.62445e-09
3.80584e-09
3.43447e-09
3.57754e-09
3.39391e-09
3.87518e-09
3.70501e-09
3.75723e-09
3.24799e-09
3.18818e-09
3.02384e-09
3.71003e-09
3.72453e-09
3.62898e-09
3.64736e-09
3.45677e-09
3.27257e-09
3.32782e-09
3.80407e-09
3.2816e-09
3.73559e-09
3.38417e-09
3.71106e-09
3.27006e-09
3.37124e-09
3.20913e-09
3.72607e-09
3.59967e-09
3.64559e-09
3.04414e-09
3.00975e-09
2.8748e-09
3.60885e-09
3.62872e-09
3.57326e-09
3.5895e-09
3.25726e-09
3.10395e-09
3.27431e-09
3.71824e-09
3.27708e-09
3.69019e-09
3.24596e-09
3.6701e-09
3.20771e-09
3.19497e-09
3.05635e-09
3.62509e-09
3.55781e-09
3.58705e-09
2.88092e-09
2.86514e-09
2.76837e-09
3.56771e-09
3.58254e-09
3.57298e-09
3.58534e-09
3.09263e-09
2.97708e-09
3.28325e-09
3.68939e-09
3.32275e-09
3.70017e-09
3.20772e-09
3.68218e-09
3.22258e-09
3.04583e-09
2.94212e-09
3.58285e-09
3.57264e-09
3.58951e-09
2.76787e-09
2.76218e-09
2.69307e-09
3.57948e-09
3.59153e-09
3.62146e-09
3.63293e-09
2.96963e-09
2.88717e-09
3.34059e-09
3.71146e-09
3.4113e-09
3.76249e-09
3.23852e-09
3.75023e-09
3.3037e-09
2.93534e-09
2.86334e-09
3.59791e-09
3.63696e-09
3.64313e-09
2.68639e-09
2.6906e-09
2.65425e-09
3.6409e-09
3.65323e-09
3.72447e-09
3.73099e-09
2.88387e-09
2.83389e-09
3.44072e-09
3.78637e-09
3.55016e-09
3.87472e-09
3.33055e-09
3.86878e-09
3.42856e-09
2.86052e-09
2.82139e-09
3.66416e-09
3.75304e-09
3.74396e-09
2.63678e-09
2.65861e-09
2.65393e-09
3.75768e-09
3.76239e-09
3.8818e-09
3.88067e-09
2.83626e-09
2.81573e-09
3.59308e-09
3.90991e-09
3.74652e-09
4.0397e-09
3.46711e-09
4.03889e-09
3.60363e-09
2.82542e-09
2.8195e-09
3.777e-09
3.92346e-09
3.9005e-09
2.62505e-09
2.66577e-09
2.69634e-09
3.92966e-09
3.92662e-09
4.10291e-09
4.08508e-09
2.82556e-09
2.83936e-09
3.80483e-09
4.09119e-09
4.00587e-09
4.26719e-09
3.65596e-09
4.27193e-09
3.83645e-09
2.83143e-09
2.86117e-09
3.94989e-09
4.15707e-09
4.12202e-09
2.65441e-09
2.71813e-09
2.79536e-09
4.1668e-09
4.14681e-09
4.39512e-09
4.35842e-09
2.85912e-09
2.92222e-09
4.08044e-09
4.33517e-09
4.33362e-09
4.56411e-09
3.90462e-09
4.58347e-09
4.13794e-09
2.88319e-09
2.9608e-09
4.18855e-09
4.46054e-09
4.41616e-09
2.74127e-09
2.83311e-09
2.97416e-09
4.47981e-09
4.44108e-09
4.77691e-09
4.7245e-09
2.95713e-09
3.09219e-09
4.42982e-09
4.65376e-09
4.75196e-09
4.95818e-09
4.22739e-09
4.99619e-09
4.53295e-09
2.99949e-09
3.14401e-09
4.50328e-09
4.85432e-09
4.80246e-09
2.9074e-09
3.0398e-09
3.2828e-09
4.88874e-09
4.83513e-09
5.28114e-09
5.21834e-09
3.15624e-09
3.38668e-09
4.87381e-09
5.07657e-09
5.29743e-09
5.48805e-09
4.64882e-09
5.53258e-09
5.05099e-09
3.21174e-09
3.46629e-09
4.91909e-09
5.37913e-09
5.31833e-09
3.20748e-09
3.39106e-09
3.79518e-09
5.43041e-09
5.37016e-09
5.9617e-09
5.90356e-09
3.49935e-09
3.90729e-09
5.45794e-09
5.6469e-09
6.01296e-09
6.19426e-09
5.20702e-09
6.25284e-09
5.74306e-09
3.58215e-09
3.99939e-09
5.47214e-09
6.07975e-09
6.00947e-09
3.70709e-09
3.99038e-09
4.66786e-09
6.17412e-09
6.11715e-09
6.91207e-09
6.8599e-09
4.09324e-09
4.76883e-09
6.23792e-09
6.41172e-09
7.00804e-09
7.18706e-09
5.9564e-09
7.23046e-09
6.72685e-09
4.18892e-09
4.93445e-09
6.22112e-09
7.05499e-09
6.97952e-09
4.60502e-09
4.94899e-09
6.09609e-09
7.19098e-09
7.14634e-09
8.23776e-09
8.19517e-09
5.0588e-09
6.189e-09
7.29758e-09
7.48376e-09
8.37308e-09
8.53039e-09
7.01577e-09
8.57775e-09
8.03917e-09
5.24869e-09
6.36745e-09
7.2666e-09
8.39164e-09
8.2939e-09
5.9493e-09
6.61208e-09
8.58255e-09
8.65307e-09
8.62154e-09
1.01451e-08
1.01241e-08
6.70793e-09
8.70413e-09
8.80097e-09
8.95165e-09
1.03098e-08
1.04916e-08
8.46168e-09
1.05153e-08
9.97422e-09
6.87438e-09
9.01576e-09
8.71636e-09
1.03283e-08
1.02288e-08
8.49419e-09
9.42976e-09
1.29369e-08
1.07419e-08
1.07274e-08
1.28837e-08
1.28882e-08
9.54311e-09
1.30214e-08
1.09221e-08
1.11e-08
1.30985e-08
1.32524e-08
1.05662e-08
1.32873e-08
1.27347e-08
9.89215e-09
1.34671e-08
1.08212e-08
1.30652e-08
1.29783e-08
1.28201e-08
1.4277e-08
2.0111e-08
1.37193e-08
1.37309e-08
1.67058e-08
1.67236e-08
1.43659e-08
2.00497e-08
1.3933e-08
1.41005e-08
1.69465e-08
1.71419e-08
1.35899e-08
1.71454e-08
1.65719e-08
1.48451e-08
2.08938e-08
1.38294e-08
1.69467e-08
1.68107e-08
1.99769e-08
2.23225e-08
3.21673e-08
1.78844e-08
1.79212e-08
2.20564e-08
2.21109e-08
2.22139e-08
3.1987e-08
1.81442e-08
1.83225e-08
2.2358e-08
2.25124e-08
1.77486e-08
2.25818e-08
2.19608e-08
2.30937e-08
3.29774e-08
1.79905e-08
2.23111e-08
2.21919e-08
3.20887e-08
3.55178e-08
5.05485e-08
2.36773e-08
2.37151e-08
2.92269e-08
2.94159e-08
3.52231e-08
5.0358e-08
2.39733e-08
2.41509e-08
2.95702e-08
2.97732e-08
2.35824e-08
2.98637e-08
2.92079e-08
3.6423e-08
5.16947e-08
2.38024e-08
2.94197e-08
2.93468e-08
5.05315e-08
5.54522e-08
7.88553e-08
3.13774e-08
3.1598e-08
3.88907e-08
3.91014e-08
5.53231e-08
7.78328e-08
3.17828e-08
3.19508e-08
3.94127e-08
3.9436e-08
3.13936e-08
3.96458e-08
3.88522e-08
5.65857e-08
7.9499e-08
3.14978e-08
3.89469e-08
3.8909e-08
7.83002e-08
8.58143e-08
1.16867e-07
4.17042e-08
4.19721e-08
5.11145e-08
5.16834e-08
8.47338e-08
1.17096e-07
4.2226e-08
4.22313e-08
5.16948e-08
5.17144e-08
4.16717e-08
5.2355e-08
5.12676e-08
8.63713e-08
1.17642e-07
4.17063e-08
5.12101e-08
5.11698e-08
1.17047e-07
1.25949e-07
1.68352e-07
5.46429e-08
5.52359e-08
6.65232e-08
6.70913e-08
1.26335e-07
1.67515e-07
5.53143e-08
5.52695e-08
6.74299e-08
6.71057e-08
5.48195e-08
6.80789e-08
6.65916e-08
1.2673e-07
1.68092e-07
5.46737e-08
6.64967e-08
6.63607e-08
1.67586e-07
1.80061e-07
2.31463e-07
7.0899e-08
7.15227e-08
8.51151e-08
8.5726e-08
1.79234e-07
2.32293e-07
7.18217e-08
7.14232e-08
8.62354e-08
8.54753e-08
7.09397e-08
8.76727e-08
8.51873e-08
1.79467e-07
2.29768e-07
7.06921e-08
8.49243e-08
8.48551e-08
2.30599e-07
2.45003e-07
3.04602e-07
9.02442e-08
9.07286e-08
1.07246e-07
1.07267e-07
2.45765e-07
3.03404e-07
9.15045e-08
9.06484e-08
1.08856e-07
1.07432e-07
9.03332e-08
1.10442e-07
1.07056e-07
2.434e-07
3.02507e-07
8.99685e-08
1.06618e-07
1.0658e-07
3.02876e-07
3.20374e-07
3.83388e-07
1.13347e-07
1.1327e-07
1.3244e-07
1.32659e-07
3.18819e-07
3.81598e-07
1.15194e-07
1.13313e-07
1.35584e-07
1.32289e-07
1.13088e-07
1.35835e-07
1.32642e-07
3.17504e-07
3.79672e-07
1.12565e-07
1.31725e-07
1.31988e-07
3.82242e-07
3.98948e-07
4.60294e-07
1.39188e-07
1.39622e-07
1.60984e-07
1.62344e-07
3.97342e-07
4.60235e-07
1.4273e-07
1.39184e-07
1.64994e-07
1.61317e-07
1.39595e-07
1.63724e-07
1.61511e-07
3.96056e-07
4.59592e-07
1.38931e-07
1.60644e-07
1.61002e-07
4.61426e-07
4.76461e-07
5.35573e-07
1.68781e-07
1.70541e-07
1.9361e-07
1.96472e-07
4.76923e-07
5.37739e-07
1.7278e-07
1.69199e-07
1.97042e-07
1.94436e-07
1.69241e-07
1.95195e-07
1.94082e-07
4.75544e-07
5.35184e-07
1.68839e-07
1.93277e-07
1.93892e-07
5.36867e-07
5.51067e-07
6.0623e-07
2.02361e-07
2.0531e-07
2.30409e-07
2.32692e-07
5.52962e-07
6.03941e-07
2.05369e-07
2.03249e-07
2.31576e-07
2.3043e-07
2.02797e-07
2.29136e-07
2.30197e-07
5.5115e-07
6.05809e-07
2.02615e-07
2.29264e-07
2.29987e-07
6.07181e-07
6.21535e-07
6.71911e-07
2.4032e-07
2.42325e-07
2.71033e-07
2.7208e-07
6.18537e-07
6.67685e-07
2.40851e-07
2.398e-07
2.69983e-07
2.69254e-07
2.39917e-07
2.67648e-07
2.7034e-07
6.2044e-07
6.68942e-07
2.39675e-07
2.68649e-07
2.69958e-07
6.70965e-07
6.85909e-07
7.28258e-07
2.81546e-07
2.81988e-07
3.13923e-07
3.12156e-07
6.81514e-07
7.23461e-07
2.80108e-07
2.79471e-07
3.11594e-07
3.10942e-07
2.80765e-07
3.0968e-07
3.13204e-07
6.82997e-07
7.26375e-07
2.80398e-07
3.1105e-07
3.13019e-07
7.28884e-07
7.40773e-07
7.75677e-07
3.24932e-07
3.22662e-07
3.58416e-07
3.55322e-07
7.36231e-07
7.73717e-07
3.22433e-07
3.21775e-07
3.5559e-07
3.55126e-07
3.24328e-07
3.5464e-07
3.57785e-07
7.39071e-07
7.74883e-07
3.24181e-07
3.55504e-07
3.57749e-07
7.74349e-07
7.86597e-07
8.14792e-07
3.69699e-07
3.66358e-07
4.03527e-07
3.99563e-07
7.85116e-07
8.14815e-07
3.66731e-07
3.66338e-07
3.99867e-07
3.99916e-07
3.68857e-07
4.00202e-07
4.01504e-07
7.85984e-07
8.15356e-07
3.68941e-07
4.00762e-07
4.02148e-07
8.12098e-07
8.24254e-07
8.4935e-07
4.14721e-07
4.10688e-07
4.4827e-07
4.44782e-07
8.24598e-07
8.50718e-07
4.10822e-07
4.11162e-07
4.44107e-07
4.45618e-07
4.1218e-07
4.45117e-07
4.44832e-07
8.25189e-07
8.51435e-07
4.13018e-07
4.46286e-07
4.45901e-07
8.48987e-07
8.58655e-07
8.81139e-07
4.59416e-07
4.5631e-07
4.90442e-07
4.88464e-07
8.60166e-07
8.82348e-07
4.55424e-07
4.57206e-07
4.87373e-07
4.89283e-07
4.56094e-07
4.88377e-07
4.88321e-07
8.60749e-07
8.82252e-07
4.57117e-07
4.89383e-07
4.89042e-07
8.81884e-07
8.87908e-07
8.93553e-07
4.99341e-07
4.97647e-07
5.21463e-07
5.20344e-07
8.88952e-07
8.93925e-07
4.9661e-07
4.98389e-07
5.19559e-07
5.20814e-07
4.97686e-07
5.20382e-07
5.20895e-07
8.88734e-07
8.93693e-07
4.983e-07
5.20889e-07
5.21209e-07
8.94467e-07
8.96554e-07
8.94323e-07
5.27752e-07
5.26758e-07
5.46341e-07
5.45653e-07
8.96844e-07
8.94231e-07
5.2607e-07
5.27134e-07
5.4515e-07
5.45793e-07
5.2739e-07
5.45556e-07
5.46203e-07
8.96613e-07
8.94175e-07
5.27636e-07
5.45899e-07
5.46299e-07
8.94872e-07
8.97204e-07
9.02312e-07
5.53199e-07
5.52589e-07
5.7873e-07
5.78308e-07
8.97096e-07
9.02085e-07
5.5215e-07
5.52686e-07
5.78e-07
5.78382e-07
5.5305e-07
5.78038e-07
5.78513e-07
8.97048e-07
9.02175e-07
5.53109e-07
5.78331e-07
5.7847e-07
9.02469e-07
9.07928e-07
9.29843e-07
5.89449e-07
5.89081e-07
6.28602e-07
6.28406e-07
9.07696e-07
9.29633e-07
5.88814e-07
5.89173e-07
6.28178e-07
6.28525e-07
5.8923e-07
6.28129e-07
6.28471e-07
9.07806e-07
9.29842e-07
5.89157e-07
6.28349e-07
6.28335e-07
9.29856e-07
9.39139e-07
9.73318e-07
6.43283e-07
6.43139e-07
6.87904e-07
6.87868e-07
9.3895e-07
9.73189e-07
6.4292e-07
6.43256e-07
6.87652e-07
6.87967e-07
6.43196e-07
6.8761e-07
6.87928e-07
9.39153e-07
9.73391e-07
6.43047e-07
6.87785e-07
6.8776e-07
9.73377e-07
9.83484e-07
1.01963e-06
7.0231e-07
7.02293e-07
7.43047e-07
7.43067e-07
9.83369e-07
1.01953e-06
7.02091e-07
7.02389e-07
7.42887e-07
7.4315e-07
7.02357e-07
7.42845e-07
7.43131e-07
9.8356e-07
1.0197e-06
7.02189e-07
7.42986e-07
7.42981e-07
1.0197e-06
1.02978e-06
1.06145e-06
7.5546e-07
7.55485e-07
7.86815e-07
7.8685e-07
1.02968e-06
1.06135e-06
7.55318e-07
7.55564e-07
7.86692e-07
7.86915e-07
7.55548e-07
7.86643e-07
7.86911e-07
1.02984e-06
1.0615e-06
7.55404e-07
7.86772e-07
7.86781e-07
1.06153e-06
1.06949e-06
1.08751e-06
7.9488e-07
7.94916e-07
8.12079e-07
8.12116e-07
1.06939e-06
1.08742e-06
7.94767e-07
7.94978e-07
8.11972e-07
8.12171e-07
7.94976e-07
8.11918e-07
8.12174e-07
1.06953e-06
1.08756e-06
7.9485e-07
8.12042e-07
8.12053e-07
1.0876e-06
1.09257e-06
1.09978e-06
8.15872e-07
8.15909e-07
8.23273e-07
8.23309e-07
1.09248e-06
1.0997e-06
8.15771e-07
8.15963e-07
8.23169e-07
8.23361e-07
8.15966e-07
8.23122e-07
8.23366e-07
1.09261e-06
1.09983e-06
8.15847e-07
8.23238e-07
8.23249e-07
1.09986e-06
1.10305e-06
1.10484e-06
8.24779e-07
8.24814e-07
8.27554e-07
8.27589e-07
1.10297e-06
1.10475e-06
8.24678e-07
8.24867e-07
8.2745e-07
8.27641e-07
8.2487e-07
8.27411e-07
8.27645e-07
1.10309e-06
1.10488e-06
8.24755e-07
8.2752e-07
8.27532e-07
1.10492e-06
1.10731e-06
1.10681e-06
8.28087e-07
8.28122e-07
8.29052e-07
8.29088e-07
1.10723e-06
1.10674e-06
8.27986e-07
8.28174e-07
8.28949e-07
8.29137e-07
8.28178e-07
8.28912e-07
8.29142e-07
1.10735e-06
1.10686e-06
8.28066e-07
8.29019e-07
8.29032e-07
1.1069e-06
1.10898e-06
1.10742e-06
8.29234e-07
8.29269e-07
8.2953e-07
8.29566e-07
1.1089e-06
1.10734e-06
8.29132e-07
8.29318e-07
8.29426e-07
8.29612e-07
8.29323e-07
8.29389e-07
8.29618e-07
1.10902e-06
1.10746e-06
8.29214e-07
8.29495e-07
8.29509e-07
1.10751e-06
1.10951e-06
1.10745e-06
8.29562e-07
8.29597e-07
8.29558e-07
8.29592e-07
1.10944e-06
1.10737e-06
8.29458e-07
8.29644e-07
8.29451e-07
8.29638e-07
8.2965e-07
8.29415e-07
8.29646e-07
1.10955e-06
1.10749e-06
8.29541e-07
8.29522e-07
8.29536e-07
1.10754e-06
1.10948e-06
1.10725e-06
8.29538e-07
8.29571e-07
8.29525e-07
8.29558e-07
1.10941e-06
1.10717e-06
8.29431e-07
8.29618e-07
8.29417e-07
8.29604e-07
8.29626e-07
8.29381e-07
8.29612e-07
1.10952e-06
1.1073e-06
8.29515e-07
8.29488e-07
8.29502e-07
1.10734e-06
1.10934e-06
1.10757e-06
8.29538e-07
8.29571e-07
8.29597e-07
8.29629e-07
1.10926e-06
1.10749e-06
8.2943e-07
8.29617e-07
8.29488e-07
8.29674e-07
8.29625e-07
8.29452e-07
8.29682e-07
1.10937e-06
1.10761e-06
8.29514e-07
8.29557e-07
8.29571e-07
1.10765e-06
1.10961e-06
1.10738e-06
8.29596e-07
8.29627e-07
8.29561e-07
8.2959e-07
1.10954e-06
1.10729e-06
8.29487e-07
8.29673e-07
8.29451e-07
8.29637e-07
8.2968e-07
8.29414e-07
8.29645e-07
1.10965e-06
1.10741e-06
8.29569e-07
8.2952e-07
8.29533e-07
1.10745e-06
1.10937e-06
1.10742e-06
8.29545e-07
8.29575e-07
8.29557e-07
8.29588e-07
1.10929e-06
1.10734e-06
8.29436e-07
8.29622e-07
8.29446e-07
8.29634e-07
8.2963e-07
8.29411e-07
8.29643e-07
1.10941e-06
1.10747e-06
8.29518e-07
8.2952e-07
8.29534e-07
1.10752e-06
1.10952e-06
1.10742e-06
8.29574e-07
8.29605e-07
8.29565e-07
8.29594e-07
1.10945e-06
1.10733e-06
8.29464e-07
8.29651e-07
8.29453e-07
8.2964e-07
8.29659e-07
8.29417e-07
8.29648e-07
1.10957e-06
1.10745e-06
8.29549e-07
8.29523e-07
8.29534e-07
1.10749e-06
1.10945e-06
1.10744e-06
8.29553e-07
8.29583e-07
8.29561e-07
8.29594e-07
1.10936e-06
1.10738e-06
8.29442e-07
8.29629e-07
8.29449e-07
8.29637e-07
8.29638e-07
8.29415e-07
8.29647e-07
1.10948e-06
1.1075e-06
8.29524e-07
8.29521e-07
8.29532e-07
1.10754e-06
1.10953e-06
1.10739e-06
8.29563e-07
8.29595e-07
8.29564e-07
8.29593e-07
1.10947e-06
1.1073e-06
8.29453e-07
8.2964e-07
8.29451e-07
8.29639e-07
8.29648e-07
8.29417e-07
8.29647e-07
1.10958e-06
1.10742e-06
8.29534e-07
8.29525e-07
8.29535e-07
1.10747e-06
1.10942e-06
1.10751e-06
8.29563e-07
8.29593e-07
8.29567e-07
8.29595e-07
1.10933e-06
1.10743e-06
8.2945e-07
8.29638e-07
8.29451e-07
8.29639e-07
8.29647e-07
8.29419e-07
8.29649e-07
1.10945e-06
1.10754e-06
8.29534e-07
8.29523e-07
8.29534e-07
1.10759e-06
1.10956e-06
1.10738e-06
8.29564e-07
8.2959e-07
8.29568e-07
8.29596e-07
1.10947e-06
1.10732e-06
8.2945e-07
8.29638e-07
8.29451e-07
8.29642e-07
8.29647e-07
8.29421e-07
8.2965e-07
1.10958e-06
1.10745e-06
8.29532e-07
8.29526e-07
8.29538e-07
1.10748e-06
1.10946e-06
1.1074e-06
8.29568e-07
8.29595e-07
8.29563e-07
8.29591e-07
1.10941e-06
1.10731e-06
8.29451e-07
8.29641e-07
8.2945e-07
8.29638e-07
8.2965e-07
8.29416e-07
8.29646e-07
1.10953e-06
1.10742e-06
8.29538e-07
8.29521e-07
8.29531e-07
1.10747e-06
1.10943e-06
1.10748e-06
8.29563e-07
8.29591e-07
8.29568e-07
8.29595e-07
1.10935e-06
1.10738e-06
8.2945e-07
8.29637e-07
8.29452e-07
8.29639e-07
8.29646e-07
8.29417e-07
8.29648e-07
1.10947e-06
1.10749e-06
8.29531e-07
8.29524e-07
8.29535e-07
1.10754e-06
1.10951e-06
1.10747e-06
8.29563e-07
8.29591e-07
8.29567e-07
8.29598e-07
1.1094e-06
1.1074e-06
8.2945e-07
8.29636e-07
8.29452e-07
8.29642e-07
8.29643e-07
8.29423e-07
8.29654e-07
1.1095e-06
1.10752e-06
8.29529e-07
8.2953e-07
8.29539e-07
1.10758e-06
1.10954e-06
1.10739e-06
8.29566e-07
8.29595e-07
8.29566e-07
8.29596e-07
1.10945e-06
1.10736e-06
8.29452e-07
8.2964e-07
8.29451e-07
8.29641e-07
8.29649e-07
8.29417e-07
8.29646e-07
1.10956e-06
1.10749e-06
8.29536e-07
8.29523e-07
8.29532e-07
1.10751e-06
1.10947e-06
1.10739e-06
8.29566e-07
8.29596e-07
8.29566e-07
8.29594e-07
1.10945e-06
1.10732e-06
8.29451e-07
8.29639e-07
8.29451e-07
8.29641e-07
8.29651e-07
8.29415e-07
8.29644e-07
1.10956e-06
1.10745e-06
8.29535e-07
8.29522e-07
8.2953e-07
1.10747e-06
1.10943e-06
1.10745e-06
8.29566e-07
8.29594e-07
8.29566e-07
8.29593e-07
1.10939e-06
1.10733e-06
8.29451e-07
8.29641e-07
8.2945e-07
8.29638e-07
8.29642e-07
8.2942e-07
8.29649e-07
1.10952e-06
1.10746e-06
8.29529e-07
8.29526e-07
8.29535e-07
1.10748e-06
1.10947e-06
1.10748e-06
8.29566e-07
8.29593e-07
8.29568e-07
8.29595e-07
1.10938e-06
1.10736e-06
8.2945e-07
8.29638e-07
8.2945e-07
8.29638e-07
8.29649e-07
8.29417e-07
8.29649e-07
1.10951e-06
1.10746e-06
8.29535e-07
8.29521e-07
8.29536e-07
1.10754e-06
1.10952e-06
1.10746e-06
8.29567e-07
8.29594e-07
8.2957e-07
8.29593e-07
1.10941e-06
1.10732e-06
8.2945e-07
8.29637e-07
8.29454e-07
8.29638e-07
8.29648e-07
8.29415e-07
8.29648e-07
1.10953e-06
1.10742e-06
8.29535e-07
8.29519e-07
8.29533e-07
1.10752e-06
1.10953e-06
1.1074e-06
8.2957e-07
8.29592e-07
8.29566e-07
8.29597e-07
1.10936e-06
1.10738e-06
8.29453e-07
8.29637e-07
8.29451e-07
8.29641e-07
8.29648e-07
8.29421e-07
8.2965e-07
1.10949e-06
1.10746e-06
8.29533e-07
8.29523e-07
8.29535e-07
1.10749e-06
1.10946e-06
1.1075e-06
8.29566e-07
8.29592e-07
8.29572e-07
8.29596e-07
1.10939e-06
1.10742e-06
8.29451e-07
8.29638e-07
8.29454e-07
8.29638e-07
8.29649e-07
8.29417e-07
8.29648e-07
1.10949e-06
1.10751e-06
8.29531e-07
8.29522e-07
8.29537e-07
1.10757e-06
1.10955e-06
1.1074e-06
8.29573e-07
8.29599e-07
8.29561e-07
8.29589e-07
1.10949e-06
1.10729e-06
8.29456e-07
8.29639e-07
8.29444e-07
8.29637e-07
8.29649e-07
8.29411e-07
8.29646e-07
1.10955e-06
1.10748e-06
8.29538e-07
8.29516e-07
8.29531e-07
1.10754e-06
1.10947e-06
1.10748e-06
8.29563e-07
8.29591e-07
8.29569e-07
8.29594e-07
1.10937e-06
1.10736e-06
8.29447e-07
8.29637e-07
8.29452e-07
8.2964e-07
8.29647e-07
8.29414e-07
8.29646e-07
1.10951e-06
1.10755e-06
8.29535e-07
8.29519e-07
8.2953e-07
1.10748e-06
1.10952e-06
1.10742e-06
8.29569e-07
8.29594e-07
8.29565e-07
8.29593e-07
1.1094e-06
1.10737e-06
8.29451e-07
8.29639e-07
8.29448e-07
8.29636e-07
8.29645e-07
8.29415e-07
8.2965e-07
1.10959e-06
1.10746e-06
8.29529e-07
8.29514e-07
8.29536e-07
1.10755e-06
1.10953e-06
1.10734e-06
8.29567e-07
8.29594e-07
8.29563e-07
8.2959e-07
1.10944e-06
1.10728e-06
8.29451e-07
8.29638e-07
8.29445e-07
8.29636e-07
8.2965e-07
8.29408e-07
8.29646e-07
1.10954e-06
1.10743e-06
8.29536e-07
8.29513e-07
8.29531e-07
1.10755e-06
1.1094e-06
1.10742e-06
8.29564e-07
8.29591e-07
8.29562e-07
8.29591e-07
1.10935e-06
1.10735e-06
8.29445e-07
8.29635e-07
8.29444e-07
8.29637e-07
8.29651e-07
8.29408e-07
8.29641e-07
1.10947e-06
1.10749e-06
8.29534e-07
8.29513e-07
8.29529e-07
1.10745e-06
1.10942e-06
1.10748e-06
8.29565e-07
8.29593e-07
8.29559e-07
8.29588e-07
1.10936e-06
1.1074e-06
8.29446e-07
8.29638e-07
8.29441e-07
8.29632e-07
8.29646e-07
8.29409e-07
8.2964e-07
1.1095e-06
1.10752e-06
8.29533e-07
8.29508e-07
8.29523e-07
1.1074e-06
1.10948e-06
1.1075e-06
8.2956e-07
8.29591e-07
8.2956e-07
8.29591e-07
1.10942e-06
1.10743e-06
8.29445e-07
8.29636e-07
8.2944e-07
8.29629e-07
8.29642e-07
8.29409e-07
8.2964e-07
1.10955e-06
1.10753e-06
8.29529e-07
8.29507e-07
8.29522e-07
1.10744e-06
1.10953e-06
1.10746e-06
8.29562e-07
8.29593e-07
8.29552e-07
8.29585e-07
1.10946e-06
1.10739e-06
8.29443e-07
8.29634e-07
8.29439e-07
8.29626e-07
8.29642e-07
8.29403e-07
8.29637e-07
1.10959e-06
1.10745e-06
8.29524e-07
8.29507e-07
8.29523e-07
1.10751e-06
1.10953e-06
1.10744e-06
8.29558e-07
8.29593e-07
8.29547e-07
8.2958e-07
1.10948e-06
1.1073e-06
8.29444e-07
8.29631e-07
8.29436e-07
8.29625e-07
8.29641e-07
8.29397e-07
8.29634e-07
1.10953e-06
1.10745e-06
8.29527e-07
8.295e-07
8.29515e-07
1.10756e-06
1.10952e-06
1.1074e-06
8.29555e-07
8.29585e-07
8.29545e-07
8.29581e-07
1.10937e-06
1.10738e-06
8.29444e-07
8.2963e-07
8.29429e-07
8.29623e-07
8.29641e-07
8.29396e-07
8.29628e-07
1.10949e-06
1.10752e-06
8.29524e-07
8.295e-07
8.29511e-07
1.10756e-06
1.10949e-06
1.10737e-06
8.29555e-07
8.29588e-07
8.29541e-07
8.29572e-07
1.10942e-06
1.10737e-06
8.29442e-07
8.29632e-07
8.29425e-07
8.29618e-07
8.2964e-07
8.2939e-07
8.29624e-07
1.10955e-06
1.10752e-06
8.29521e-07
8.29498e-07
8.2951e-07
1.10755e-06
1.10942e-06
1.10747e-06
8.29555e-07
8.29588e-07
8.29539e-07
8.29564e-07
1.10945e-06
1.10731e-06
8.29439e-07
8.29633e-07
8.29426e-07
8.29613e-07
8.29639e-07
8.29386e-07
8.29621e-07
1.10959e-06
1.10744e-06
8.29524e-07
8.2949e-07
8.29505e-07
1.10752e-06
1.1095e-06
1.10745e-06
8.29558e-07
8.29585e-07
8.29535e-07
8.29561e-07
1.1094e-06
1.10731e-06
8.29444e-07
8.29633e-07
8.2942e-07
8.29609e-07
8.29638e-07
8.29383e-07
8.29618e-07
1.10953e-06
1.10742e-06
8.29525e-07
8.29486e-07
8.295e-07
1.1075e-06
1.10953e-06
1.1074e-06
8.29559e-07
8.29583e-07
8.29533e-07
8.29559e-07
1.10937e-06
1.10733e-06
8.29444e-07
8.29632e-07
8.29418e-07
8.29609e-07
8.29641e-07
8.2938e-07
8.29612e-07
1.10949e-06
1.10745e-06
8.29524e-07
8.29485e-07
8.29495e-07
1.1075e-06
1.10948e-06
1.10737e-06
8.29563e-07
8.29588e-07
8.29526e-07
8.29553e-07
1.10939e-06
1.10732e-06
8.29448e-07
8.29637e-07
8.29409e-07
8.29599e-07
8.29643e-07
8.29374e-07
8.29606e-07
1.1095e-06
1.10745e-06
8.29525e-07
8.2948e-07
8.2949e-07
1.10752e-06
1.10945e-06
1.10738e-06
8.29566e-07
8.29592e-07
8.29521e-07
8.29545e-07
1.10939e-06
1.1073e-06
8.29449e-07
8.29639e-07
8.29404e-07
8.29594e-07
8.29645e-07
8.29368e-07
8.296e-07
1.1095e-06
1.10744e-06
8.29528e-07
8.29472e-07
8.29482e-07
1.10752e-06
1.10942e-06
1.10745e-06
8.29569e-07
8.29595e-07
8.29515e-07
8.2954e-07
1.10937e-06
1.10732e-06
8.29451e-07
8.29641e-07
8.294e-07
8.29589e-07
8.29649e-07
8.29363e-07
8.29595e-07
1.10948e-06
1.10747e-06
8.29532e-07
8.29465e-07
8.29474e-07
1.1075e-06
1.10948e-06
1.10745e-06
8.29577e-07
8.29601e-07
8.29506e-07
8.29533e-07
1.10937e-06
1.10733e-06
8.29462e-07
8.29651e-07
8.29388e-07
8.29578e-07
8.29656e-07
8.29355e-07
8.29587e-07
1.1095e-06
1.10751e-06
8.29537e-07
8.2946e-07
8.29468e-07
1.10751e-06
1.10953e-06
1.10737e-06
8.29587e-07
8.29612e-07
8.29494e-07
8.29522e-07
1.10939e-06
1.10732e-06
8.29471e-07
8.29658e-07
8.29378e-07
8.29568e-07
8.29665e-07
8.29345e-07
8.29578e-07
1.10955e-06
1.10748e-06
8.29546e-07
8.29449e-07
8.29459e-07
1.10755e-06
1.10946e-06
1.1074e-06
8.29598e-07
8.29624e-07
8.29486e-07
8.29512e-07
1.10938e-06
1.10732e-06
8.29481e-07
8.29671e-07
8.2937e-07
8.29558e-07
8.2968e-07
8.29333e-07
8.29565e-07
1.10956e-06
1.10744e-06
8.29561e-07
8.29435e-07
8.29446e-07
1.10754e-06
1.10946e-06
1.10743e-06
8.29616e-07
8.29642e-07
8.29476e-07
8.29502e-07
1.10937e-06
1.10736e-06
8.29501e-07
8.2969e-07
8.2936e-07
8.29549e-07
8.29698e-07
8.29324e-07
8.29555e-07
1.10952e-06
1.10747e-06
8.29578e-07
8.29427e-07
8.29435e-07
1.10751e-06
1.10949e-06
1.10744e-06
8.29647e-07
8.29673e-07
8.29468e-07
8.29492e-07
1.10941e-06
1.10735e-06
8.29531e-07
8.29721e-07
8.29353e-07
8.29543e-07
8.29726e-07
8.29314e-07
8.29544e-07
1.10952e-06
1.10749e-06
8.29607e-07
8.29421e-07
8.29423e-07
1.10751e-06
1.1095e-06
1.10721e-06
8.29687e-07
8.29709e-07
8.29071e-07
8.29093e-07
1.10943e-06
1.10708e-06
8.2957e-07
8.2976e-07
8.2895e-07
8.29136e-07
8.29762e-07
8.28919e-07
8.29147e-07
1.10954e-06
1.10724e-06
8.2964e-07
8.29011e-07
8.29018e-07
1.10729e-06
1.10916e-06
1.08707e-06
8.29409e-07
8.29429e-07
8.07071e-07
8.0709e-07
1.10904e-06
1.08702e-06
8.29285e-07
8.29479e-07
8.07028e-07
8.07059e-07
8.29485e-07
8.07053e-07
8.07124e-07
1.10918e-06
1.08709e-06
8.29351e-07
8.07068e-07
8.07072e-07
1.08711e-06
1.06383e-06
7.75779e-07
7.75795e-07
1.06379e-06
7.75759e-07
7.75762e-07
3.14411e-07
3.14393e-07
3.14424e-07
7.75825e-07
1.06384e-06
7.75803e-07
3.45129e-08
5.34333e-09
2.27804e-08
2.28172e-08
1.59985e-09
4.40213e-09
1.07705e-08
1.30304e-08
1.40389e-09
4.54203e-09
1.28986e-08
1.27835e-08
5.2134e-09
7.46821e-09
3.73695e-09
7.11389e-09
1.65774e-07
5.81148e-09
2.59096e-07
1.58636e-06
3.18648e-06
7.23952e-09
1.65395e-07
5.96946e-09
2.54855e-07
1.29066e-08
1.28908e-08
1.27835e-08
1.26841e-08
1.27803e-08
1.27494e-08
1.26612e-08
1.55583e-09
8.55745e-08
5.95834e-09
4.86816e-09
1.58078e-09
6.39816e-08
5.89563e-09
1.63996e-06
3.21666e-06
1.43803e-09
6.35899e-09
1.21068e-07
6.4434e-09
1.4522e-09
6.17167e-09
9.95388e-08
2.18351e-07
2.15072e-07
4.81305e-09
1.87296e-07
1.84421e-07
1.57578e-08
4.59998e-07
1.24e-08
6.81728e-07
7.1188e-06
1.00301e-05
1.59592e-08
4.58461e-07
1.24244e-08
6.81397e-07
1.28291e-08
1.27902e-08
1.27079e-08
1.29024e-08