/*--------------------------------*- C++ -*----------------------------------*\
| =========                 |                                                 |
| \\      /  F ield         | OpenFOAM: The Open Source CFD Toolbox           |
|  \\    /   O peration     | Version:  v1906                                 |
|   \\  /    A nd           | Web:      www.OpenFOAM.com                      |
|    \\/     M anipulation  |                                                 |
\*---------------------------------------------------------------------------*/
FoamFile
{
    version     2.0;
    format      ascii;
    class       volScalarField;
    location    "187.5";
    object      k;
}
// * * * * * * * * * * * * * * * * * * * * * * * * * * * * * * * * * * * * * //

dimensions      [0 2 -2 0 0 0 0];


internalField   nonuniform List<scalar> 
171728
(
1.6427e-06
3.76867e-07
6.12413e-07
3.6541e-07
1.63519e-06
3.66651e-07
5.40796e-07
3.47385e-07
1.67222e-06
3.60117e-07
4.38277e-07
3.32004e-07
1.70973e-06
3.5687e-07
3.70766e-07
3.18247e-07
1.74752e-06
3.53211e-07
3.4924e-07
3.03375e-07
1.78617e-06
3.53268e-07
3.49219e-07
2.87863e-07
1.82527e-06
3.55972e-07
3.50951e-07
2.77334e-07
1.86857e-06
3.61799e-07
3.55388e-07
2.68663e-07
1.91362e-06
3.6853e-07
3.63402e-07
2.62776e-07
1.95994e-06
3.78402e-07
3.73757e-07
2.60354e-07
2.00755e-06
3.90656e-07
3.88422e-07
2.58307e-07
2.05499e-06
4.06844e-07
4.04642e-07
2.57864e-07
2.10231e-06
4.25676e-07
4.25076e-07
2.57524e-07
2.14892e-06
4.48023e-07
4.50815e-07
2.57086e-07
2.19402e-06
4.78508e-07
4.80901e-07
2.60441e-07
2.23937e-06
5.12655e-07
5.17098e-07
2.71151e-07
2.28137e-06
5.56362e-07
5.59515e-07
2.88035e-07
2.32549e-06
6.09889e-07
6.13714e-07
3.23172e-07
2.36733e-06
6.70598e-07
6.78938e-07
3.6403e-07
2.40932e-06
7.52656e-07
7.69007e-07
4.64841e-07
2.4534e-06
8.66121e-07
8.84588e-07
6.354e-07
2.49895e-06
1.01462e-06
1.05122e-06
9.19096e-07
2.54361e-06
1.23275e-06
1.27212e-06
1.38314e-06
2.5905e-06
1.51468e-06
1.53521e-06
2.07189e-06
2.64711e-06
1.90082e-06
1.89876e-06
3.11764e-06
2.70715e-06
2.40558e-06
2.3727e-06
4.52804e-06
2.78034e-06
2.9919e-06
2.97444e-06
6.31701e-06
2.86569e-06
3.76988e-06
3.68147e-06
8.52782e-06
2.96713e-06
4.71755e-06
4.53864e-06
1.09335e-05
3.09064e-06
5.78595e-06
5.50395e-06
1.35206e-05
3.23511e-06
6.85856e-06
6.63884e-06
1.60966e-05
3.41806e-06
8.10565e-06
7.91358e-06
1.8483e-05
3.622e-06
9.40389e-06
9.32175e-06
2.0729e-05
3.88116e-06
1.0827e-05
1.08393e-05
2.27706e-05
4.18681e-06
1.24228e-05
1.25181e-05
2.47032e-05
4.58154e-06
1.42643e-05
1.43192e-05
2.65542e-05
5.05855e-06
1.62348e-05
1.62154e-05
2.79974e-05
5.6357e-06
1.8182e-05
1.82206e-05
2.94359e-05
6.3736e-06
2.03342e-05
2.04191e-05
3.11621e-05
7.0333e-06
2.18256e-05
2.18746e-05
3.21199e-05
7.47061e-06
2.23255e-05
2.2349e-05
3.20719e-05
7.78158e-06
2.26406e-05
2.26597e-05
3.17791e-05
8.61686e-06
2.41195e-05
2.41333e-05
3.23764e-05
1.05184e-05
2.69137e-05
2.69235e-05
3.42424e-05
1.32851e-05
3.0148e-05
3.0154e-05
3.65643e-05
1.68552e-05
3.35444e-05
3.35484e-05
3.91882e-05
2.00982e-05
3.6036e-05
3.60396e-05
4.11283e-05
2.2141e-05
3.73471e-05
3.73502e-05
4.21027e-05
2.31281e-05
3.79067e-05
3.79092e-05
4.25081e-05
2.35172e-05
3.81121e-05
3.81143e-05
4.26646e-05
2.36511e-05
3.81843e-05
3.81864e-05
4.27225e-05
2.36815e-05
3.81951e-05
3.81973e-05
4.27441e-05
2.36839e-05
3.81896e-05
3.81919e-05
4.27185e-05
2.36889e-05
3.81971e-05
3.81992e-05
4.27369e-05
2.36879e-05
3.81948e-05
3.81968e-05
4.27365e-05
2.36874e-05
3.81933e-05
3.81957e-05
4.2723e-05
2.36879e-05
3.81947e-05
3.81968e-05
4.27416e-05
2.36875e-05
3.81947e-05
3.81967e-05
4.27255e-05
2.36877e-05
3.81943e-05
3.81966e-05
4.27333e-05
2.36876e-05
3.81945e-05
3.81965e-05
4.27375e-05
2.36876e-05
3.81948e-05
3.81971e-05
4.27223e-05
2.36877e-05
3.81942e-05
3.81962e-05
4.27319e-05
2.36878e-05
3.81942e-05
3.81964e-05
4.274e-05
2.36879e-05
3.81953e-05
3.81974e-05
4.27358e-05
2.36878e-05
3.81948e-05
3.81968e-05
4.27238e-05
2.36878e-05
3.8194e-05
3.81963e-05
4.27265e-05
2.36877e-05
3.81949e-05
3.8197e-05
4.27319e-05
2.36878e-05
3.81945e-05
3.81965e-05
4.27418e-05
2.36879e-05
3.81941e-05
3.81961e-05
4.27276e-05
2.36877e-05
3.81953e-05
3.81968e-05
4.27316e-05
2.3688e-05
3.81951e-05
3.81971e-05
4.27374e-05
2.36878e-05
3.81942e-05
3.81964e-05
4.27233e-05
2.36878e-05
3.81947e-05
3.81967e-05
4.27283e-05
2.36878e-05
3.81954e-05
3.81966e-05
4.2741e-05
2.36877e-05
3.81945e-05
3.81963e-05
4.27339e-05
2.36877e-05
3.81946e-05
3.81969e-05
4.27236e-05
2.36876e-05
3.81948e-05
3.81963e-05
4.27277e-05
2.36876e-05
3.81953e-05
3.81964e-05
4.27369e-05
2.36876e-05
3.81948e-05
3.81967e-05
4.27393e-05
2.36875e-05
3.81943e-05
3.81962e-05
4.27351e-05
2.36875e-05
3.81947e-05
3.81965e-05
4.27284e-05
2.36874e-05
3.81944e-05
3.81966e-05
4.2725e-05
2.36874e-05
3.81941e-05
3.81961e-05
4.2724e-05
2.36874e-05
3.81942e-05
3.8196e-05
4.27259e-05
2.36875e-05
3.81944e-05
3.81963e-05
4.27303e-05
2.36875e-05
3.81944e-05
3.81965e-05
4.27334e-05
2.36874e-05
3.81944e-05
3.81965e-05
4.27321e-05
2.36874e-05
3.81948e-05
3.81965e-05
4.27312e-05
2.36874e-05
3.81952e-05
3.81973e-05
4.2735e-05
2.36875e-05
3.81957e-05
3.81977e-05
4.27373e-05
2.36876e-05
3.81963e-05
3.81981e-05
4.27362e-05
2.36878e-05
3.81977e-05
3.81996e-05
4.27355e-05
2.36877e-05
3.81998e-05
3.82017e-05
4.27365e-05
2.36799e-05
3.81902e-05
3.81918e-05
4.27291e-05
2.31075e-05
3.68955e-05
3.68951e-05
4.20185e-05
3.54251e-07
3.40976e-07
3.42324e-07
3.65518e-07
3.06735e-07
3.41552e-07
1.68965e-06
1.70088e-06
1.69971e-06
1.69105e-06
3.4079e-07
3.34292e-07
3.54655e-07
3.64479e-07
3.41411e-07
3.68067e-07
3.51974e-07
3.402e-07
3.81533e-07
3.78717e-07
3.72567e-07
3.69757e-07
3.63168e-07
3.49348e-07
3.39251e-07
3.81247e-07
3.31891e-07
3.72493e-07
4.12422e-07
3.68714e-07
4.01283e-07
3.52071e-07
3.4097e-07
3.78615e-07
5.65329e-07
3.69067e-07
3.50442e-07
3.37633e-07
3.25014e-07
3.70049e-07
3.67304e-07
3.63066e-07
3.61449e-07
3.46397e-07
3.3439e-07
3.29078e-07
3.70321e-07
3.20437e-07
3.64585e-07
3.98794e-07
3.6121e-07
3.93785e-07
3.38021e-07
3.2815e-07
3.66631e-07
4.61834e-07
3.62242e-07
3.34824e-07
3.22077e-07
3.09029e-07
3.6121e-07
3.59805e-07
3.57267e-07
3.56248e-07
3.31971e-07
3.23067e-07
3.18015e-07
3.63019e-07
3.12913e-07
3.59222e-07
3.92833e-07
3.57768e-07
3.91706e-07
3.25466e-07
3.16026e-07
3.61227e-07
3.82929e-07
3.58287e-07
3.21137e-07
3.06198e-07
2.95587e-07
3.56316e-07
3.55765e-07
3.54773e-07
3.55792e-07
3.21004e-07
3.13427e-07
3.11868e-07
3.58152e-07
3.10306e-07
3.55913e-07
3.90701e-07
3.53755e-07
3.84403e-07
3.14129e-07
3.07e-07
3.57619e-07
3.51384e-07
3.5604e-07
3.06627e-07
2.93104e-07
2.84695e-07
3.5441e-07
3.56047e-07
3.54294e-07
3.57233e-07
3.11377e-07
3.04812e-07
3.10232e-07
3.55369e-07
3.10582e-07
3.55152e-07
3.81685e-07
3.53099e-07
3.70892e-07
3.04682e-07
2.97958e-07
3.55461e-07
3.48703e-07
3.55039e-07
2.90866e-07
2.8253e-07
2.75515e-07
3.54392e-07
3.57717e-07
3.55456e-07
3.59492e-07
3.03059e-07
2.9909e-07
3.1092e-07
3.55246e-07
3.12594e-07
3.56503e-07
3.6521e-07
3.55232e-07
3.45596e-07
2.9607e-07
2.91286e-07
3.55091e-07
3.50583e-07
3.56194e-07
2.79494e-07
2.73446e-07
2.6719e-07
3.56206e-07
3.6042e-07
3.58671e-07
3.63416e-07
2.97777e-07
2.94742e-07
3.13078e-07
3.57281e-07
3.15985e-07
3.60868e-07
3.39621e-07
3.60329e-07
3.28748e-07
2.89837e-07
2.86626e-07
3.57067e-07
3.54106e-07
3.59328e-07
2.70686e-07
2.65417e-07
2.61335e-07
3.59889e-07
3.64547e-07
3.65912e-07
3.67986e-07
2.93255e-07
2.88732e-07
3.17509e-07
3.62495e-07
3.24682e-07
3.68251e-07
3.27614e-07
3.6709e-07
3.27467e-07
2.8532e-07
2.82329e-07
3.60184e-07
3.61495e-07
3.64974e-07
2.63976e-07
2.60068e-07
2.57772e-07
3.67827e-07
3.69411e-07
3.75243e-07
3.77432e-07
2.87227e-07
2.83333e-07
3.27736e-07
3.70618e-07
3.37807e-07
3.78567e-07
3.28282e-07
3.76603e-07
3.37699e-07
2.81066e-07
2.7828e-07
3.67145e-07
3.70894e-07
3.748e-07
2.61187e-07
2.56743e-07
2.5471e-07
3.77568e-07
3.80316e-07
3.86127e-07
3.90217e-07
2.8207e-07
2.79753e-07
3.40826e-07
3.81435e-07
3.51047e-07
3.92614e-07
3.41319e-07
3.87374e-07
3.53366e-07
2.77261e-07
2.75597e-07
3.78151e-07
3.8496e-07
3.88759e-07
2.59004e-07
2.53786e-07
2.52936e-07
3.89328e-07
3.93488e-07
3.99015e-07
4.04907e-07
2.78889e-07
2.78057e-07
3.54676e-07
3.95958e-07
3.66757e-07
4.07793e-07
3.5743e-07
4.02724e-07
3.70169e-07
2.74781e-07
2.74542e-07
3.92032e-07
4.00577e-07
4.03004e-07
2.58355e-07
2.52299e-07
2.52907e-07
4.03011e-07
4.09271e-07
4.17333e-07
4.22635e-07
2.77377e-07
2.77172e-07
3.71514e-07
4.1249e-07
3.8741e-07
4.27923e-07
3.74918e-07
4.20993e-07
3.8911e-07
2.74006e-07
2.75093e-07
4.07071e-07
4.19758e-07
4.20404e-07
2.58171e-07
2.52506e-07
2.55242e-07
4.22817e-07
4.28167e-07
4.41446e-07
4.45761e-07
2.76601e-07
2.77731e-07
3.93317e-07
4.33796e-07
4.1241e-07
4.49858e-07
3.94521e-07
4.42135e-07
4.11792e-07
2.74585e-07
2.76086e-07
4.25698e-07
4.44257e-07
4.43402e-07
2.57539e-07
2.55106e-07
2.60233e-07
4.47874e-07
4.51916e-07
4.68509e-07
4.72256e-07
2.7759e-07
2.80795e-07
4.19926e-07
4.55532e-07
4.43957e-07
4.76082e-07
4.18026e-07
4.70784e-07
4.39709e-07
2.75847e-07
2.80427e-07
4.49662e-07
4.7344e-07
4.70772e-07
2.59908e-07
2.61039e-07
2.69846e-07
4.76316e-07
4.78943e-07
5.0157e-07
4.98958e-07
2.81354e-07
2.87452e-07
4.52014e-07
4.83714e-07
4.80891e-07
5.10579e-07
4.47098e-07
5.03824e-07
4.71449e-07
2.8122e-07
2.89947e-07
4.78761e-07
5.07684e-07
5.05178e-07
2.69035e-07
2.72113e-07
2.843e-07
5.10776e-07
5.06315e-07
5.3942e-07
5.31194e-07
2.88865e-07
3.02099e-07
4.91518e-07
5.20921e-07
5.19787e-07
5.52895e-07
4.81095e-07
5.45076e-07
5.09615e-07
2.92133e-07
3.07217e-07
5.14995e-07
5.48482e-07
5.45395e-07
2.84656e-07
2.8778e-07
3.16979e-07
5.50092e-07
5.4089e-07
5.88093e-07
5.75329e-07
3.06094e-07
3.30149e-07
5.30811e-07
5.64722e-07
5.72399e-07
6.05296e-07
5.19864e-07
5.96143e-07
5.58087e-07
3.11097e-07
3.37596e-07
5.5594e-07
5.99635e-07
5.94209e-07
3.13106e-07
3.24734e-07
3.56567e-07
6.01125e-07
5.8853e-07
6.45937e-07
6.31249e-07
3.38224e-07
3.69997e-07
5.85923e-07
6.20698e-07
6.31156e-07
6.70916e-07
5.72917e-07
6.53447e-07
6.16166e-07
3.47819e-07
3.87951e-07
6.08767e-07
6.6075e-07
6.52266e-07
3.53056e-07
3.72124e-07
4.41402e-07
6.63708e-07
6.49061e-07
7.21635e-07
7.08342e-07
3.83825e-07
4.56617e-07
6.50943e-07
6.90041e-07
7.12022e-07
7.54835e-07
6.33379e-07
7.2999e-07
6.97256e-07
4.00301e-07
4.76102e-07
6.70334e-07
7.44258e-07
7.34711e-07
4.40058e-07
4.64733e-07
6.02827e-07
7.45641e-07
7.32597e-07
8.30944e-07
8.18064e-07
4.7979e-07
6.13352e-07
7.35985e-07
7.80619e-07
8.28276e-07
8.67671e-07
7.20569e-07
8.35334e-07
8.04119e-07
5.03397e-07
6.45965e-07
7.58252e-07
8.54472e-07
8.42067e-07
5.88611e-07
6.47163e-07
8.48401e-07
8.6127e-07
8.49763e-07
9.72756e-07
9.58615e-07
6.56849e-07
8.57095e-07
8.6021e-07
8.98443e-07
9.69936e-07
1.01458e-06
8.38166e-07
9.72999e-07
9.53924e-07
6.89854e-07
9.08248e-07
8.75447e-07
1.00519e-06
9.91438e-07
8.55018e-07
9.17914e-07
1.27762e-06
1.01693e-06
1.00251e-06
1.16837e-06
1.16209e-06
9.20563e-07
1.27881e-06
1.01403e-06
1.05788e-06
1.16991e-06
1.20789e-06
9.96494e-07
1.17254e-06
1.15495e-06
9.80819e-07
1.32319e-06
1.03418e-06
1.20934e-06
1.18871e-06
1.2663e-06
1.38713e-06
1.91999e-06
1.23105e-06
1.2209e-06
1.43531e-06
1.42836e-06
1.38742e-06
1.89594e-06
1.2326e-06
1.27024e-06
1.42849e-06
1.47157e-06
1.21803e-06
1.43706e-06
1.42526e-06
1.43552e-06
1.99401e-06
1.25065e-06
1.46441e-06
1.45119e-06
1.91601e-06
2.07128e-06
2.89827e-06
1.5102e-06
1.5105e-06
1.78774e-06
1.7873e-06
2.0608e-06
2.86304e-06
1.50538e-06
1.54984e-06
1.79937e-06
1.831e-06
1.50695e-06
1.79414e-06
1.78547e-06
2.14877e-06
2.95585e-06
1.52805e-06
1.79799e-06
1.7989e-06
2.89392e-06
3.14198e-06
4.22696e-06
1.89397e-06
1.89091e-06
2.23488e-06
2.25574e-06
3.08333e-06
4.20641e-06
1.90626e-06
1.93373e-06
2.23425e-06
2.27453e-06
1.88791e-06
2.26935e-06
2.24049e-06
3.1888e-06
4.27898e-06
1.90059e-06
2.24298e-06
2.24667e-06
4.2206e-06
4.51125e-06
5.9462e-06
2.36321e-06
2.39268e-06
2.79509e-06
2.81361e-06
4.52145e-06
5.92679e-06
2.36235e-06
2.40384e-06
2.81769e-06
2.84443e-06
2.37447e-06
2.82884e-06
2.80437e-06
4.57314e-06
5.99975e-06
2.37739e-06
2.81318e-06
2.80043e-06
5.94825e-06
6.33418e-06
8.11411e-06
2.95733e-06
2.97788e-06
3.49239e-06
3.53673e-06
6.27789e-06
8.13647e-06
2.98273e-06
3.0111e-06
3.50943e-06
3.51872e-06
2.96383e-06
3.56086e-06
3.49774e-06
6.37648e-06
8.06772e-06
2.95946e-06
3.48753e-06
3.48968e-06
8.08311e-06
8.55411e-06
1.04577e-05
3.67732e-06
3.7254e-06
4.30011e-06
4.33246e-06
8.61164e-06
1.05058e-05
3.7003e-06
3.70288e-06
4.32267e-06
4.35386e-06
3.69075e-06
4.46877e-06
4.30815e-06
8.48976e-06
1.04843e-05
3.681e-06
4.32406e-06
4.29942e-06
1.04509e-05
1.09556e-05
1.31467e-05
4.54035e-06
4.55465e-06
5.30311e-06
5.2662e-06
1.09866e-05
1.30918e-05
4.5522e-06
4.5843e-06
5.33898e-06
5.28416e-06
4.53058e-06
5.51396e-06
5.27163e-06
1.0984e-05
1.29312e-05
4.51976e-06
5.23606e-06
5.24431e-06
1.30045e-05
1.36516e-05
1.55775e-05
5.56553e-06
5.51928e-06
6.38004e-06
6.33647e-06
1.35825e-05
1.54798e-05
5.6334e-06
5.53919e-06
6.55008e-06
6.36206e-06
5.54411e-06
6.58244e-06
6.39605e-06
1.34228e-05
1.55362e-05
5.51119e-06
6.35128e-06
6.35183e-06
1.55886e-05
1.6078e-05
1.80037e-05
6.66537e-06
6.63819e-06
7.58374e-06
7.66205e-06
1.59835e-05
1.80825e-05
6.86782e-06
6.65076e-06
7.87293e-06
7.60469e-06
6.68301e-06
7.78185e-06
7.61526e-06
1.60457e-05
1.78984e-05
6.64157e-06
7.57452e-06
7.59689e-06
1.79908e-05
1.84793e-05
2.01775e-05
7.90432e-06
8.02048e-06
8.93421e-06
9.07363e-06
1.86083e-05
2.028e-05
8.20453e-06
7.95302e-06
9.17636e-06
9.03353e-06
7.95271e-06
9.0775e-06
8.96676e-06
1.83956e-05
2.02626e-05
7.93753e-06
8.96987e-06
8.95578e-06
2.02668e-05
2.06507e-05
2.23729e-05
9.31351e-06
9.4451e-06
1.05224e-05
1.07032e-05
2.07049e-05
2.23001e-05
9.51461e-06
9.39412e-06
1.05918e-05
1.05171e-05
9.32358e-06
1.04532e-05
1.04949e-05
2.07278e-05
2.22691e-05
9.31613e-06
1.04351e-05
1.04811e-05
2.23397e-05
2.28249e-05
2.43222e-05
1.09323e-05
1.11303e-05
1.22006e-05
1.2305e-05
2.27513e-05
2.41605e-05
1.09644e-05
1.09129e-05
1.2136e-05
1.21172e-05
1.08916e-05
1.20071e-05
1.21129e-05
2.2704e-05
2.42261e-05
1.08725e-05
1.20956e-05
1.21025e-05
2.42579e-05
2.47383e-05
2.60981e-05
1.2638e-05
1.26892e-05
1.39813e-05
1.39491e-05
2.45507e-05
2.59482e-05
1.25499e-05
1.25275e-05
1.38857e-05
1.38592e-05
1.25515e-05
1.37812e-05
1.39614e-05
2.46461e-05
2.60329e-05
1.25466e-05
1.38526e-05
1.39422e-05
2.61786e-05
2.64887e-05
2.77292e-05
1.44406e-05
1.43949e-05
1.58557e-05
1.57537e-05
2.6364e-05
2.76681e-05
1.43567e-05
1.43285e-05
1.57932e-05
1.57369e-05
1.44525e-05
1.57469e-05
1.59374e-05
2.64282e-05
2.7664e-05
1.44225e-05
1.57389e-05
1.58954e-05
2.76589e-05
2.808e-05
2.91469e-05
1.63379e-05
1.62066e-05
1.7815e-05
1.76008e-05
2.80241e-05
2.91229e-05
1.62662e-05
1.6199e-05
1.76596e-05
1.76239e-05
1.64078e-05
1.76736e-05
1.77354e-05
2.80179e-05
2.9163e-05
1.63761e-05
1.76886e-05
1.77592e-05
2.90872e-05
2.94883e-05
3.08039e-05
1.83415e-05
1.81173e-05
1.99961e-05
1.97976e-05
2.94765e-05
3.08252e-05
1.8158e-05
1.81516e-05
1.97801e-05
1.98495e-05
1.82098e-05
1.98181e-05
1.98042e-05
2.95253e-05
3.08657e-05
1.8249e-05
1.99016e-05
1.9864e-05
3.07838e-05
3.11746e-05
3.19409e-05
2.05054e-05
2.03251e-05
2.16775e-05
2.15513e-05
3.11968e-05
3.19519e-05
2.02949e-05
2.03767e-05
2.15079e-05
2.15939e-05
2.0323e-05
2.15564e-05
2.15669e-05
3.12285e-05
3.19588e-05
2.03832e-05
2.16163e-05
2.16149e-05
3.1964e-05
3.20915e-05
3.19965e-05
2.19288e-05
2.18169e-05
2.23275e-05
2.22496e-05
3.21009e-05
3.19947e-05
2.17759e-05
2.1855e-05
2.22186e-05
2.22701e-05
2.18449e-05
2.22641e-05
2.22984e-05
3.21044e-05
3.19934e-05
2.1887e-05
2.22907e-05
2.23252e-05
3.20334e-05
3.20356e-05
3.17129e-05
2.23828e-05
2.23141e-05
2.25563e-05
2.25087e-05
3.20336e-05
3.17028e-05
2.22866e-05
2.23284e-05
2.24903e-05
2.2512e-05
2.23614e-05
2.25078e-05
2.25364e-05
3.20318e-05
3.17042e-05
2.23844e-05
2.25277e-05
2.25494e-05
3.17286e-05
3.17655e-05
3.21077e-05
2.26873e-05
2.26446e-05
2.36234e-05
2.35948e-05
3.17551e-05
3.20954e-05
2.26299e-05
2.2648e-05
2.35869e-05
2.36019e-05
2.26657e-05
2.35886e-05
2.36028e-05
3.17568e-05
3.21032e-05
2.26755e-05
2.36038e-05
2.36046e-05
3.21057e-05
3.23796e-05
3.38313e-05
2.41502e-05
2.41266e-05
2.61782e-05
2.61672e-05
3.23683e-05
3.3825e-05
2.41198e-05
2.41342e-05
2.61602e-05
2.61735e-05
2.41322e-05
2.61596e-05
2.61698e-05
3.23767e-05
3.38326e-05
2.41322e-05
2.61702e-05
2.61661e-05
3.38303e-05
3.42429e-05
3.60932e-05
2.693e-05
2.69217e-05
2.93093e-05
2.93062e-05
3.42378e-05
3.60903e-05
2.69149e-05
2.69275e-05
2.93005e-05
2.93105e-05
2.69245e-05
2.93003e-05
2.93095e-05
3.42449e-05
3.60959e-05
2.69199e-05
2.93072e-05
2.93044e-05
3.60945e-05
3.65631e-05
3.87163e-05
3.01556e-05
3.01534e-05
3.27425e-05
3.27419e-05
3.65606e-05
3.87143e-05
3.01485e-05
3.01574e-05
3.27382e-05
3.27447e-05
3.01567e-05
3.27383e-05
3.27452e-05
3.65656e-05
3.87177e-05
3.0152e-05
3.27425e-05
3.27418e-05
3.87181e-05
3.91865e-05
4.08304e-05
3.35482e-05
3.35479e-05
3.5537e-05
3.55369e-05
3.91847e-05
4.08286e-05
3.35447e-05
3.35504e-05
3.55347e-05
3.55386e-05
3.35512e-05
3.55344e-05
3.55405e-05
3.91877e-05
4.08311e-05
3.35482e-05
3.5538e-05
3.55382e-05
4.08326e-05
4.11262e-05
4.19461e-05
3.60384e-05
3.60382e-05
3.71101e-05
3.71099e-05
4.11245e-05
4.19445e-05
3.60366e-05
3.60398e-05
3.71086e-05
3.71109e-05
3.6042e-05
3.71083e-05
3.71137e-05
4.11268e-05
4.19467e-05
3.60398e-05
3.71116e-05
3.71118e-05
4.19485e-05
4.21004e-05
4.24242e-05
3.73486e-05
3.73484e-05
3.78138e-05
3.78135e-05
4.20989e-05
4.24228e-05
3.73474e-05
3.73494e-05
3.78126e-05
3.78145e-05
3.73522e-05
3.78128e-05
3.78174e-05
4.2101e-05
4.24248e-05
3.73504e-05
3.78155e-05
3.78159e-05
4.24266e-05
4.25055e-05
4.26129e-05
3.79074e-05
3.7907e-05
3.80787e-05
3.80784e-05
4.25043e-05
4.26118e-05
3.79062e-05
3.7908e-05
3.80776e-05
3.80793e-05
3.79109e-05
3.80783e-05
3.80822e-05
4.25061e-05
4.26135e-05
3.79095e-05
3.80806e-05
3.8081e-05
4.26154e-05
4.2662e-05
4.26832e-05
3.81122e-05
3.8112e-05
3.81738e-05
3.81736e-05
4.2661e-05
4.2682e-05
3.81113e-05
3.81128e-05
3.81728e-05
3.81741e-05
3.81157e-05
3.81735e-05
3.81771e-05
4.26626e-05
4.26835e-05
3.81146e-05
3.81757e-05
3.81761e-05
4.26855e-05
4.27201e-05
4.27092e-05
3.81845e-05
3.81843e-05
3.81958e-05
3.81955e-05
4.27191e-05
4.27082e-05
3.81836e-05
3.81848e-05
3.81946e-05
3.8196e-05
3.81878e-05
3.81953e-05
3.81991e-05
4.27204e-05
4.27094e-05
3.81868e-05
3.81975e-05
3.8198e-05
4.27114e-05
4.27418e-05
4.2687e-05
3.81955e-05
3.81952e-05
3.81903e-05
3.81899e-05
4.27408e-05
4.26858e-05
3.81944e-05
3.81958e-05
3.81891e-05
3.81905e-05
3.81988e-05
3.81897e-05
3.81936e-05
4.2742e-05
4.26875e-05
3.81977e-05
3.8192e-05
3.81925e-05
4.26895e-05
4.27159e-05
4.26994e-05
3.81901e-05
3.81898e-05
3.81956e-05
3.81953e-05
4.27148e-05
4.26982e-05
3.8189e-05
3.81903e-05
3.81943e-05
3.81957e-05
3.81934e-05
3.81952e-05
3.81989e-05
4.27164e-05
4.26997e-05
3.81923e-05
3.81974e-05
3.81977e-05
4.27016e-05
4.27345e-05
4.27076e-05
3.81975e-05
3.81972e-05
3.81979e-05
3.81976e-05
4.27335e-05
4.27063e-05
3.81962e-05
3.81976e-05
3.81967e-05
3.8198e-05
3.82007e-05
3.81974e-05
3.82009e-05
4.27347e-05
4.27075e-05
3.81995e-05
3.81995e-05
3.81998e-05
4.27093e-05
4.27349e-05
4.26845e-05
3.81954e-05
3.81949e-05
3.81923e-05
3.81919e-05
4.27335e-05
4.26835e-05
3.81942e-05
3.81954e-05
3.8191e-05
3.81925e-05
3.81983e-05
3.81919e-05
3.81956e-05
4.27346e-05
4.2685e-05
3.81971e-05
3.8194e-05
3.81944e-05
4.26872e-05
4.27188e-05
4.27103e-05
3.81936e-05
3.81934e-05
3.81968e-05
3.81963e-05
4.27187e-05
4.2709e-05
3.81922e-05
3.81938e-05
3.81955e-05
3.81968e-05
3.8197e-05
3.81961e-05
3.81997e-05
4.27205e-05
4.27104e-05
3.81961e-05
3.81983e-05
3.81986e-05
4.27123e-05
4.27405e-05
4.26861e-05
3.81953e-05
3.81947e-05
3.81942e-05
3.81939e-05
4.27385e-05
4.26857e-05
3.81941e-05
3.81953e-05
3.81927e-05
3.81943e-05
3.81983e-05
3.81938e-05
3.81975e-05
4.27396e-05
4.26872e-05
3.81969e-05
3.81959e-05
3.81961e-05
4.26891e-05
4.27213e-05
4.27059e-05
3.8195e-05
3.81948e-05
3.81949e-05
3.81944e-05
4.27221e-05
4.27029e-05
3.81936e-05
3.81951e-05
3.81937e-05
3.81949e-05
3.81983e-05
3.81942e-05
3.81979e-05
4.27235e-05
4.27041e-05
3.81969e-05
3.81965e-05
3.81969e-05
4.27064e-05
4.27328e-05
4.26969e-05
3.81948e-05
3.81943e-05
3.81952e-05
3.8195e-05
4.27298e-05
4.26981e-05
3.81935e-05
3.81948e-05
3.81935e-05
3.8195e-05
3.81979e-05
3.81947e-05
3.81984e-05
4.27309e-05
4.26999e-05
3.81969e-05
3.81969e-05
3.81969e-05
4.27013e-05
4.27338e-05
4.26908e-05
3.8195e-05
3.81946e-05
3.81949e-05
3.81944e-05
4.27342e-05
4.26885e-05
3.81935e-05
3.81948e-05
3.81935e-05
3.81949e-05
3.81981e-05
3.81944e-05
3.8198e-05
4.27357e-05
4.26895e-05
3.81966e-05
3.81965e-05
3.81969e-05
4.26919e-05
4.272e-05
4.27058e-05
3.81953e-05
3.81949e-05
3.81948e-05
3.81943e-05
4.27187e-05
4.27027e-05
3.81935e-05
3.81952e-05
3.81933e-05
3.81946e-05
3.81984e-05
3.81942e-05
3.81978e-05
4.27202e-05
4.2702e-05
3.81974e-05
3.81962e-05
3.81965e-05
4.2705e-05
4.27335e-05
4.27025e-05
3.81946e-05
3.81942e-05
3.81956e-05
3.81951e-05
4.27295e-05
4.27034e-05
3.81933e-05
3.81946e-05
3.81938e-05
3.81953e-05
3.81978e-05
3.8195e-05
3.81986e-05
4.27288e-05
4.27055e-05
3.81964e-05
3.81972e-05
3.81975e-05
4.27073e-05
4.27371e-05
4.26902e-05
3.81952e-05
3.81945e-05
3.8195e-05
3.81949e-05
4.27363e-05
4.26959e-05
3.81935e-05
3.81946e-05
3.81934e-05
3.81952e-05
3.81978e-05
3.81951e-05
3.81987e-05
4.27373e-05
4.2699e-05
3.81966e-05
3.81972e-05
3.81973e-05
4.2698e-05
4.27275e-05
4.26918e-05
3.81952e-05
3.8195e-05
3.8195e-05
3.81945e-05
4.27331e-05
4.26885e-05
3.81936e-05
3.81952e-05
3.81934e-05
3.8195e-05
3.81988e-05
3.81939e-05
3.81974e-05
4.27353e-05
4.26905e-05
3.81976e-05
3.81961e-05
3.81962e-05
4.26914e-05
4.2721e-05
4.27022e-05
3.8195e-05
3.81949e-05
3.81949e-05
3.81944e-05
4.27238e-05
4.26915e-05
3.81933e-05
3.81951e-05
3.81935e-05
3.81948e-05
3.8198e-05
3.81944e-05
3.8198e-05
4.27269e-05
4.26919e-05
3.81966e-05
3.81966e-05
3.81968e-05
4.26986e-05
4.27289e-05
4.27053e-05
3.81949e-05
3.81946e-05
3.81951e-05
3.81945e-05
4.27205e-05
4.27017e-05
3.81935e-05
3.81952e-05
3.81934e-05
3.81946e-05
3.81975e-05
3.81948e-05
3.81982e-05
4.27217e-05
4.26978e-05
3.81963e-05
3.81968e-05
3.81969e-05
4.2705e-05
4.27366e-05
4.27004e-05
3.81949e-05
3.81944e-05
3.81954e-05
3.81949e-05
4.27285e-05
4.27033e-05
3.81934e-05
3.81947e-05
3.81937e-05
3.81949e-05
3.81981e-05
3.81945e-05
3.81983e-05
4.27256e-05
4.26988e-05
3.81968e-05
3.81963e-05
3.81973e-05
4.2709e-05
4.27357e-05
4.26923e-05
3.81951e-05
3.81946e-05
3.81954e-05
3.81949e-05
4.27345e-05
4.27024e-05
3.81934e-05
3.81947e-05
3.81939e-05
3.81951e-05
3.81981e-05
3.81948e-05
3.8198e-05
4.27262e-05
4.27001e-05
3.81972e-05
3.81964e-05
3.81966e-05
4.26912e-05
4.27298e-05
4.26924e-05
3.81956e-05
3.81945e-05
3.8195e-05
3.81953e-05
4.27338e-05
4.27031e-05
3.8194e-05
3.81946e-05
3.81934e-05
3.81954e-05
3.8198e-05
3.81953e-05
3.81985e-05
4.27267e-05
4.27068e-05
3.81966e-05
3.81972e-05
3.81975e-05
4.27031e-05
4.2724e-05
4.26911e-05
3.8195e-05
3.81952e-05
3.81953e-05
3.81944e-05
4.27375e-05
4.26875e-05
3.81934e-05
3.81953e-05
3.81935e-05
3.81947e-05
3.81984e-05
3.81941e-05
3.8198e-05
4.27378e-05
4.26973e-05
3.81969e-05
3.81965e-05
3.81971e-05
4.27005e-05
4.27274e-05
4.26927e-05
3.81962e-05
3.81952e-05
3.81944e-05
3.81942e-05
4.27242e-05
4.26953e-05
3.81944e-05
3.81952e-05
3.81928e-05
3.81947e-05
3.81985e-05
3.81942e-05
3.81978e-05
4.27332e-05
4.26968e-05
3.81976e-05
3.81963e-05
3.81962e-05
4.26903e-05
4.27209e-05
4.27069e-05
3.81944e-05
3.81942e-05
3.81957e-05
3.81952e-05
4.2723e-05
4.27052e-05
3.81927e-05
3.81947e-05
3.81943e-05
3.8195e-05
3.8198e-05
3.81952e-05
3.81984e-05
4.27317e-05
4.27002e-05
3.81966e-05
3.81966e-05
3.8197e-05
4.27013e-05
4.27397e-05
4.26894e-05
3.81955e-05
3.81948e-05
3.81949e-05
3.81946e-05
4.27381e-05
4.26893e-05
3.81938e-05
3.81951e-05
3.81933e-05
3.81948e-05
3.81979e-05
3.81948e-05
3.81986e-05
4.27362e-05
4.26902e-05
3.81963e-05
3.81963e-05
3.81974e-05
4.27084e-05
4.27263e-05
4.26941e-05
3.8195e-05
3.81947e-05
3.8195e-05
3.81946e-05
4.27273e-05
4.26925e-05
3.81937e-05
3.81948e-05
3.81936e-05
3.81951e-05
3.81987e-05
3.81942e-05
3.81979e-05
4.27232e-05
4.27013e-05
3.81973e-05
3.81968e-05
3.81968e-05
4.26959e-05
4.27225e-05
4.2705e-05
3.8195e-05
3.81946e-05
3.8195e-05
3.81947e-05
4.2721e-05
4.27048e-05
3.81934e-05
3.81948e-05
3.81934e-05
3.81953e-05
3.81986e-05
3.81946e-05
3.81977e-05
4.273e-05
4.27052e-05
3.81971e-05
3.81966e-05
3.81967e-05
4.26927e-05
4.27332e-05
4.27038e-05
3.81952e-05
3.81949e-05
3.8195e-05
3.81947e-05
4.27342e-05
4.27015e-05
3.81935e-05
3.81954e-05
3.81932e-05
3.81948e-05
3.8198e-05
3.81947e-05
3.81982e-05
4.27373e-05
4.26996e-05
3.81972e-05
3.8196e-05
3.81962e-05
4.27003e-05
4.27367e-05
4.26983e-05
3.8195e-05
3.81947e-05
3.81954e-05
3.81954e-05
4.27354e-05
4.2697e-05
3.81933e-05
3.81951e-05
3.81933e-05
3.81947e-05
3.8198e-05
3.8195e-05
3.81983e-05
4.27355e-05
4.26911e-05
3.81965e-05
3.81962e-05
3.8197e-05
4.27077e-05
4.27347e-05
4.26913e-05
3.81956e-05
3.81955e-05
3.81947e-05
3.81943e-05
4.27343e-05
4.26868e-05
3.81934e-05
3.81949e-05
3.81933e-05
3.81946e-05
3.81983e-05
3.81941e-05
3.81981e-05
4.27289e-05
4.2691e-05
3.81965e-05
3.81962e-05
3.8197e-05
4.27053e-05
4.2728e-05
4.26903e-05
3.8195e-05
3.81951e-05
3.81945e-05
3.8195e-05
4.272e-05
4.26987e-05
3.81936e-05
3.81948e-05
3.81933e-05
3.81948e-05
3.81983e-05
3.81941e-05
3.81978e-05
4.27203e-05
4.27039e-05
3.81974e-05
3.81959e-05
3.8196e-05
4.26972e-05
4.27229e-05
4.26926e-05
3.81947e-05
3.81947e-05
3.81944e-05
3.8195e-05
4.27257e-05
4.27042e-05
3.81938e-05
3.81949e-05
3.81928e-05
3.81947e-05
3.81983e-05
3.81942e-05
3.81974e-05
4.27307e-05
4.27043e-05
3.81965e-05
3.81964e-05
3.8196e-05
4.26925e-05
4.27212e-05
4.27058e-05
3.81947e-05
3.81953e-05
3.81944e-05
3.81941e-05
4.27374e-05
4.26906e-05
3.81932e-05
3.81951e-05
3.81929e-05
3.81943e-05
3.8198e-05
3.81935e-05
3.81972e-05
4.27377e-05
4.26928e-05
3.81963e-05
3.81956e-05
3.8196e-05
4.26929e-05
4.27334e-05
4.27011e-05
3.81948e-05
3.81949e-05
3.81943e-05
3.81937e-05
4.27285e-05
4.26893e-05
3.81931e-05
3.8195e-05
3.81928e-05
3.8194e-05
3.81978e-05
3.81934e-05
3.81973e-05
4.27306e-05
4.26905e-05
3.81965e-05
3.81952e-05
3.81957e-05
4.26941e-05
4.27365e-05
4.26883e-05
3.81949e-05
3.81943e-05
3.8194e-05
3.81937e-05
4.27197e-05
4.26961e-05
3.81935e-05
3.81947e-05
3.81925e-05
3.81941e-05
3.81978e-05
3.81934e-05
3.81972e-05
4.27211e-05
4.26971e-05
3.81964e-05
3.81953e-05
3.81955e-05
4.26977e-05
4.27226e-05
4.26942e-05
3.81948e-05
3.81942e-05
3.81941e-05
3.81937e-05
4.27237e-05
4.27019e-05
3.81933e-05
3.81946e-05
3.81927e-05
3.81942e-05
3.8198e-05
3.81933e-05
3.81969e-05
4.27249e-05
4.27015e-05
3.81963e-05
3.81954e-05
3.81955e-05
4.2703e-05
4.27227e-05
4.27012e-05
3.8195e-05
3.81945e-05
3.81938e-05
3.81932e-05
4.27298e-05
4.27017e-05
3.81936e-05
3.81951e-05
3.81922e-05
3.81937e-05
3.81979e-05
3.8193e-05
3.81967e-05
4.27287e-05
4.27028e-05
3.81963e-05
3.81951e-05
3.81953e-05
4.27047e-05
4.27282e-05
4.27053e-05
3.81951e-05
3.81946e-05
3.81937e-05
3.8193e-05
4.27308e-05
4.27022e-05
3.81934e-05
3.81949e-05
3.81924e-05
3.81938e-05
3.81979e-05
3.81929e-05
3.81965e-05
4.27304e-05
4.27041e-05
3.81965e-05
3.81947e-05
3.81949e-05
4.27036e-05
4.2735e-05
4.27015e-05
3.81952e-05
3.81945e-05
3.81935e-05
3.8193e-05
4.27311e-05
4.27026e-05
3.81936e-05
3.81951e-05
3.81921e-05
3.81934e-05
3.81979e-05
3.81928e-05
3.81964e-05
4.27327e-05
4.27041e-05
3.81965e-05
3.81946e-05
3.81948e-05
4.27036e-05
4.27365e-05
4.269e-05
3.81956e-05
3.81948e-05
3.8193e-05
3.81928e-05
4.27336e-05
4.27008e-05
3.81942e-05
3.81955e-05
3.81913e-05
3.8193e-05
3.81982e-05
3.81925e-05
3.81962e-05
4.2736e-05
4.26999e-05
3.81965e-05
3.81946e-05
3.81947e-05
4.27057e-05
4.27277e-05
4.26911e-05
3.81958e-05
3.81953e-05
3.81928e-05
3.81925e-05
4.27336e-05
4.27005e-05
3.81941e-05
3.81955e-05
3.81913e-05
3.81928e-05
3.81986e-05
3.81922e-05
3.81959e-05
4.27351e-05
4.2694e-05
3.81971e-05
3.8194e-05
3.81944e-05
4.27048e-05
4.27211e-05
4.27017e-05
3.8196e-05
3.81956e-05
3.81929e-05
3.81925e-05
4.27331e-05
4.27023e-05
3.81944e-05
3.8196e-05
3.81913e-05
3.81927e-05
3.81993e-05
3.8192e-05
3.81956e-05
4.27307e-05
4.26959e-05
3.81977e-05
3.81937e-05
3.81941e-05
4.27024e-05
4.27304e-05
4.26986e-05
3.8197e-05
3.81965e-05
3.81929e-05
3.81924e-05
4.27348e-05
4.26992e-05
3.81954e-05
3.81968e-05
3.81913e-05
3.81927e-05
3.81999e-05
3.81921e-05
3.81957e-05
4.27312e-05
4.27004e-05
3.81983e-05
3.81941e-05
3.8194e-05
4.27037e-05
4.27324e-05
4.26948e-05
3.81983e-05
3.81979e-05
3.81934e-05
3.81927e-05
4.2735e-05
4.26903e-05
3.81968e-05
3.81982e-05
3.81916e-05
3.81931e-05
3.82011e-05
3.81924e-05
3.81961e-05
4.27359e-05
4.26951e-05
3.81995e-05
3.81943e-05
3.81944e-05
4.27052e-05
4.27317e-05
4.26881e-05
3.82005e-05
3.81999e-05
3.81854e-05
3.8185e-05
4.2727e-05
4.26862e-05
3.81988e-05
3.82003e-05
3.81839e-05
3.81852e-05
3.82031e-05
3.81847e-05
3.81883e-05
4.27324e-05
4.26878e-05
3.82014e-05
3.81863e-05
3.81866e-05
4.26991e-05
4.27192e-05
4.23637e-05
3.8191e-05
3.81905e-05
3.78431e-05
3.78429e-05
4.27155e-05
4.23655e-05
3.81894e-05
3.81908e-05
3.78436e-05
3.78414e-05
3.81938e-05
3.78456e-05
3.78454e-05
4.27179e-05
4.23649e-05
3.8192e-05
3.78454e-05
3.78458e-05
4.23663e-05
4.20167e-05
3.68924e-05
3.68921e-05
4.20166e-05
3.68935e-05
3.68905e-05
2.31077e-05
2.31068e-05
2.31088e-05
3.68944e-05
4.20163e-05
3.68955e-05
4.49681e-06
6.06234e-07
2.9682e-06
2.96714e-06
9.93536e-08
3.39773e-07
4.47199e-07
1.71593e-06
9.3349e-08
3.69597e-07
1.71038e-06
4.19985e-07
3.73939e-07
3.92422e-07
2.65851e-07
2.9426e-07
4.99446e-06
2.57007e-07
6.63018e-06
1.38545e-05
2.15871e-05
3.04947e-07
4.98605e-06
2.65823e-07
6.55792e-06
1.65445e-06
1.65681e-06
1.64491e-06
1.62716e-06
1.63972e-06
1.64242e-06
1.62956e-06
9.86123e-08
7.08824e-07
7.49002e-07
3.73049e-07
9.90028e-08
6.80697e-07
7.41638e-07
1.41189e-05
2.17276e-05
1.02592e-07
8.48098e-07
1.21068e-06
6.03085e-07
9.96494e-08
8.32974e-07
1.26141e-06
1.90599e-06
1.89012e-06
3.59116e-07
1.88865e-06
1.86655e-06
4.75541e-07
9.71165e-06
4.07727e-07
1.26319e-05
3.68772e-05
4.6359e-05
4.87727e-07
9.68938e-06
4.2051e-07
1.26284e-05
1.6482e-06
1.64972e-06
1.63779e-06
1.6631e-06