/*--------------------------------*- C++ -*----------------------------------*\
| =========                 |                                                 |
| \\      /  F ield         | OpenFOAM: The Open Source CFD Toolbox           |
|  \\    /   O peration     | Version:  v1906                                 |
|   \\  /    A nd           | Web:      www.OpenFOAM.com                      |
|    \\/     M anipulation  |                                                 |
\*---------------------------------------------------------------------------*/
FoamFile
{
    version     2.0;
    format      ascii;
    class       volScalarField;
    location    "187.5";
    object      nut;
}
// * * * * * * * * * * * * * * * * * * * * * * * * * * * * * * * * * * * * * //

dimensions      [0 2 -1 0 0 0 0];


internalField   nonuniform List<scalar> 
171728
(
1.89586e-05
2.58266e-06
4.8327e-06
2.40306e-06
1.89023e-05
2.62313e-06
5.08781e-06
2.41439e-06
1.94227e-05
2.69956e-06
3.94495e-06
2.44184e-06
1.99366e-05
2.80384e-06
3.07229e-06
2.44971e-06
2.04385e-05
2.87399e-06
2.88088e-06
2.40403e-06
2.09406e-05
2.97378e-06
2.9893e-06
2.3171e-06
2.14238e-05
3.08538e-06
3.09312e-06
2.28534e-06
2.19739e-05
3.21024e-06
3.19495e-06
2.26291e-06
2.25511e-05
3.31163e-06
3.31914e-06
2.25033e-06
2.31351e-05
3.41777e-06
3.43749e-06
2.27339e-06
2.3727e-05
3.52098e-06
3.58714e-06
2.2747e-06
2.43016e-05
3.64501e-06
3.71011e-06
2.27044e-06
2.48654e-05
3.75976e-06
3.85191e-06
2.23143e-06
2.54124e-05
3.86745e-06
4.02412e-06
2.14203e-06
2.59206e-05
4.03204e-06
4.19117e-06
2.05352e-06
2.64323e-05
4.15938e-06
4.35136e-06
1.99495e-06
2.68644e-05
4.3117e-06
4.48133e-06
1.91885e-06
2.73349e-05
4.45483e-06
4.61668e-06
1.91862e-06
2.77387e-05
4.49934e-06
4.71283e-06
1.84675e-06
2.81151e-05
4.58621e-06
4.87363e-06
2.08803e-06
2.85063e-05
4.77875e-06
5.06526e-06
2.55589e-06
2.88542e-05
5.05219e-06
5.48805e-06
3.43836e-06
2.90814e-05
5.65603e-06
6.08918e-06
4.85411e-06
2.92521e-05
6.44403e-06
6.72605e-06
6.96205e-06
2.94793e-05
7.64416e-06
7.7749e-06
1.02741e-05
2.95869e-05
9.30613e-06
9.25569e-06
1.46193e-05
2.97595e-05
1.10919e-05
1.12509e-05
2.00492e-05
2.98458e-05
1.37448e-05
1.35389e-05
2.68045e-05
2.98735e-05
1.71852e-05
1.64871e-05
3.3807e-05
2.99495e-05
2.11411e-05
1.96577e-05
4.12832e-05
2.99909e-05
2.47163e-05
2.35587e-05
4.88359e-05
3.02541e-05
2.9073e-05
2.78975e-05
5.56352e-05
3.03345e-05
3.34019e-05
3.2763e-05
6.21684e-05
3.07468e-05
3.79651e-05
3.78892e-05
6.81281e-05
3.13003e-05
4.33157e-05
4.38058e-05
7.40631e-05
3.25806e-05
5.00195e-05
5.03061e-05
8.08871e-05
3.43642e-05
5.76615e-05
5.74287e-05
8.58317e-05
3.6598e-05
6.51821e-05
6.52827e-05
9.08246e-05
4.01531e-05
7.47902e-05
7.52844e-05
9.83371e-05
4.25156e-05
8.13842e-05
8.16817e-05
0.000103463
4.19256e-05
8.12029e-05
8.13253e-05
0.000103125
3.89142e-05
7.83526e-05
7.84482e-05
0.000100098
3.92532e-05
8.14448e-05
8.15119e-05
0.000100453
4.75792e-05
9.28596e-05
9.29047e-05
0.000107294
6.30696e-05
0.000108307
0.000108331
0.000116838
8.83276e-05
0.00012743
0.000127439
0.000129225
0.000116093
0.000143277
0.000143284
0.000139329
0.000135978
0.000152228
0.000152233
0.000144622
0.000146364
0.000156196
0.000156197
0.000146852
0.000150633
0.000157675
0.000157673
0.000147714
0.000152155
0.000158211
0.000158208
0.000148044
0.000152523
0.000158306
0.000158303
0.000148197
0.000152546
0.00015826
0.000158258
0.000148039
0.000152604
0.000158311
0.000158309
0.00014813
0.000152597
0.000158302
0.000158299
0.00014816
0.000152589
0.000158284
0.000158283
0.000148044
0.000152596
0.0001583
0.000158297
0.000148186
0.00015259
0.000158297
0.000158294
0.00014806
0.000152592
0.000158294
0.000158293
0.000148132
0.000152591
0.000158297
0.000158293
0.000148143
0.00015259
0.000158298
0.000158297
0.000148046
0.000152591
0.000158294
0.00015829
0.00014812
0.000152592
0.000158295
0.000158292
0.00014817
0.000152593
0.000158302
0.000158299
0.000148131
0.000152593
0.000158298
0.000158294
0.000148052
0.000152592
0.000158293
0.000158291
0.00014808
0.000152592
0.000158298
0.000158296
0.000148118
0.000152593
0.000158296
0.000158292
0.000148181
0.000152593
0.000158293
0.00015829
0.000148077
0.000152592
0.000158303
0.000158296
0.000148116
0.000152596
0.0001583
0.000158297
0.000148145
0.000152594
0.000158294
0.000158292
0.000148046
0.000152595
0.000158298
0.000158295
0.000148092
0.000152595
0.000158303
0.000158294
0.000148172
0.000152594
0.000158297
0.000158293
0.000148117
0.000152594
0.000158298
0.000158297
0.000148056
0.000152594
0.0001583
0.000158293
0.000148096
0.000152594
0.000158304
0.000158294
0.000148162
0.000152594
0.000158299
0.000158295
0.000148174
0.000152594
0.000158296
0.000158292
0.000148137
0.000152593
0.000158299
0.000158295
0.000148087
0.000152593
0.000158296
0.000158294
0.000148062
0.000152593
0.000158295
0.000158291
0.000148058
0.000152593
0.000158295
0.00015829
0.000148076
0.000152593
0.000158296
0.000158292
0.000148109
0.000152593
0.000158295
0.000158292
0.000148129
0.000152593
0.000158295
0.000158292
0.00014812
0.000152593
0.000158296
0.000158291
0.000148116
0.000152593
0.000158298
0.000158295
0.000148142
0.000152593
0.000158299
0.000158296
0.000148154
0.000152593
0.000158301
0.000158297
0.000148145
0.000152594
0.000158307
0.000158303
0.000148145
0.000152595
0.000158317
0.000158313
0.000148155
0.000152715
0.000158292
0.000158287
0.000148145
0.000152849
0.000157922
0.000157917
0.00014936
2.32175e-06
2.39514e-06
2.45538e-06
2.28388e-06
2.23387e-06
2.42814e-06
1.9574e-05
1.96953e-05
1.97445e-05
1.96704e-05
2.40084e-06
2.55302e-06
2.29085e-06
2.69817e-06
2.38143e-06
2.41802e-06
2.30543e-06
2.34787e-06
2.62386e-06
2.62675e-06
2.64902e-06
2.64208e-06
2.26691e-06
2.28703e-06
2.32022e-06
2.60781e-06
2.35724e-06
2.62579e-06
2.76178e-06
2.60635e-06
2.7915e-06
2.27414e-06
2.28858e-06
2.59255e-06
5.21032e-06
2.60136e-06
2.41744e-06
2.34107e-06
2.34218e-06
2.66281e-06
2.65306e-06
2.70261e-06
2.6971e-06
2.26596e-06
2.29279e-06
2.3639e-06
2.64159e-06
2.37116e-06
2.69229e-06
2.82979e-06
2.67438e-06
3.01143e-06
2.28069e-06
2.30659e-06
2.6148e-06
4.25213e-06
2.68572e-06
2.44319e-06
2.33232e-06
2.30283e-06
2.7201e-06
2.71376e-06
2.78656e-06
2.77603e-06
2.28667e-06
2.32843e-06
2.37601e-06
2.71189e-06
2.40995e-06
2.77477e-06
3.08785e-06
2.78165e-06
3.35996e-06
2.30086e-06
2.31363e-06
2.71448e-06
3.2187e-06
2.79438e-06
2.45966e-06
2.29251e-06
2.28045e-06
2.81191e-06
2.80453e-06
2.89793e-06
2.90903e-06
2.32971e-06
2.36861e-06
2.42665e-06
2.79568e-06
2.49271e-06
2.8629e-06
3.44094e-06
2.853e-06
3.59106e-06
2.31392e-06
2.3435e-06
2.82358e-06
2.88493e-06
2.90969e-06
2.42472e-06
2.2708e-06
2.26688e-06
2.92596e-06
2.94662e-06
3.01811e-06
3.0572e-06
2.36682e-06
2.40211e-06
2.51706e-06
2.8838e-06
2.59073e-06
2.96108e-06
3.61751e-06
2.9484e-06
3.60478e-06
2.33535e-06
2.35425e-06
2.9345e-06
2.95368e-06
3.01944e-06
2.3443e-06
2.25336e-06
2.25931e-06
3.04671e-06
3.09207e-06
3.1335e-06
3.18892e-06
2.39127e-06
2.46012e-06
2.61444e-06
2.98574e-06
2.6799e-06
3.06203e-06
3.54713e-06
3.06034e-06
3.28718e-06
2.34015e-06
2.37954e-06
3.04559e-06
3.07299e-06
3.13219e-06
2.30953e-06
2.2359e-06
2.23499e-06
3.16429e-06
3.22186e-06
3.24018e-06
3.31145e-06
2.45005e-06
2.5189e-06
2.69419e-06
3.08976e-06
2.74213e-06
3.17606e-06
3.19807e-06
3.18393e-06
3.03232e-06
2.36638e-06
2.4192e-06
3.16536e-06
3.17194e-06
3.23957e-06
2.28898e-06
2.21286e-06
2.2203e-06
3.26731e-06
3.33856e-06
3.3726e-06
3.39919e-06
2.50267e-06
2.52023e-06
2.76344e-06
3.20548e-06
2.85535e-06
3.29844e-06
3.01141e-06
3.29368e-06
2.99484e-06
2.40548e-06
2.43833e-06
3.25883e-06
3.292e-06
3.33988e-06
2.26583e-06
2.20376e-06
2.22057e-06
3.40181e-06
3.41965e-06
3.49933e-06
3.5291e-06
2.5003e-06
2.50244e-06
2.89379e-06
3.33082e-06
3.01065e-06
3.42809e-06
2.99496e-06
3.40371e-06
3.10672e-06
2.42214e-06
2.43406e-06
3.37185e-06
3.40412e-06
3.4703e-06
2.28548e-06
2.20491e-06
2.19985e-06
3.52391e-06
3.56332e-06
3.60278e-06
3.67308e-06
2.48302e-06
2.48547e-06
3.0385e-06
3.45829e-06
3.1241e-06
3.58042e-06
3.14809e-06
3.49084e-06
3.27778e-06
2.41866e-06
2.42286e-06
3.51236e-06
3.55377e-06
3.63305e-06
2.28972e-06
2.18033e-06
2.16957e-06
3.6304e-06
3.70374e-06
3.69137e-06
3.80231e-06
2.46809e-06
2.47126e-06
3.15094e-06
3.60889e-06
3.23124e-06
3.70487e-06
3.31631e-06
3.61405e-06
3.42218e-06
2.40509e-06
2.40595e-06
3.66216e-06
3.68084e-06
3.74749e-06
2.28844e-06
2.14907e-06
2.13496e-06
3.71981e-06
3.83924e-06
3.82047e-06
3.93525e-06
2.45063e-06
2.43513e-06
3.26481e-06
3.743e-06
3.372e-06
3.86218e-06
3.4603e-06
3.73395e-06
3.55188e-06
2.38647e-06
2.38044e-06
3.7757e-06
3.81463e-06
3.85892e-06
2.25991e-06
2.11113e-06
2.09753e-06
3.86139e-06
3.97882e-06
3.99051e-06
4.10315e-06
2.40834e-06
2.37563e-06
3.4121e-06
3.90668e-06
3.53224e-06
3.9906e-06
3.5876e-06
3.83846e-06
3.68819e-06
2.35355e-06
2.31698e-06
3.89386e-06
3.98222e-06
4.00675e-06
2.1776e-06
2.06738e-06
2.04929e-06
4.02989e-06
4.13875e-06
4.13553e-06
4.24856e-06
2.3452e-06
2.29486e-06
3.58263e-06
4.01306e-06
3.73294e-06
4.11419e-06
3.72028e-06
3.99251e-06
3.83877e-06
2.28314e-06
2.25111e-06
4.04097e-06
4.1557e-06
4.15336e-06
2.09111e-06
2.01748e-06
1.99633e-06
4.17673e-06
4.26974e-06
4.28723e-06
4.29376e-06
2.25724e-06
2.19583e-06
3.77292e-06
4.1481e-06
3.92889e-06
4.27514e-06
3.86994e-06
4.12926e-06
3.96036e-06
2.21613e-06
2.1828e-06
4.19368e-06
4.31239e-06
4.31873e-06
2.03094e-06
1.9652e-06
1.91674e-06
4.32385e-06
4.29633e-06
4.39266e-06
4.30165e-06
2.14607e-06
2.10216e-06
3.98375e-06
4.3249e-06
4.04394e-06
4.44159e-06
4.00051e-06
4.27641e-06
4.0699e-06
2.14418e-06
2.12392e-06
4.36206e-06
4.4533e-06
4.4548e-06
1.96721e-06
1.86788e-06
1.93725e-06
4.41102e-06
4.30439e-06
4.50326e-06
4.34267e-06
2.06009e-06
2.05708e-06
4.06521e-06
4.47649e-06
4.20769e-06
4.58804e-06
4.08355e-06
4.42362e-06
4.1671e-06
2.07937e-06
2.07873e-06
4.47127e-06
4.58691e-06
4.55298e-06
1.91599e-06
1.9177e-06
1.87704e-06
4.52255e-06
4.3621e-06
4.55842e-06
4.37609e-06
2.03519e-06
1.99076e-06
4.23393e-06
4.63323e-06
4.28184e-06
4.74908e-06
4.21066e-06
4.48012e-06
4.25037e-06
2.07443e-06
2.12731e-06
4.59001e-06
4.68242e-06
4.61671e-06
1.88566e-06
1.88486e-06
2.04313e-06
4.58169e-06
4.39773e-06
4.6198e-06
4.4604e-06
1.97661e-06
2.15586e-06
4.33309e-06
4.78729e-06
4.42567e-06
4.88769e-06
4.2669e-06
4.56094e-06
4.3868e-06
2.09789e-06
2.26277e-06
4.6397e-06
4.8268e-06
4.74953e-06
2.05182e-06
2.06134e-06
2.52811e-06
4.65823e-06
4.50274e-06
4.82333e-06
4.6733e-06
2.17097e-06
2.6002e-06
4.46348e-06
4.94081e-06
4.71379e-06
5.11278e-06
4.42256e-06
4.72636e-06
4.56975e-06
2.30554e-06
2.78861e-06
4.78182e-06
5.02947e-06
4.9172e-06
2.43225e-06
2.64019e-06
3.22115e-06
4.86619e-06
4.73304e-06
5.0978e-06
4.94541e-06
2.70297e-06
3.29755e-06
4.77979e-06
5.15216e-06
4.99631e-06
5.4045e-06
4.65248e-06
4.96958e-06
4.94195e-06
2.88519e-06
3.55332e-06
4.9877e-06
5.36608e-06
5.26244e-06
3.29355e-06
3.39706e-06
4.56698e-06
5.20412e-06
5.04723e-06
5.57015e-06
5.49689e-06
3.4334e-06
4.60132e-06
5.10044e-06
5.49706e-06
5.50948e-06
5.83282e-06
5.03533e-06
5.47949e-06
5.46666e-06
3.74909e-06
4.77829e-06
5.35047e-06
5.89949e-06
5.7306e-06
4.49743e-06
4.87562e-06
6.56345e-06
5.76054e-06
5.65693e-06
6.34384e-06
6.24215e-06
4.91851e-06
6.42429e-06
5.70369e-06
6.01286e-06
6.21069e-06
6.546e-06
5.66199e-06
6.22372e-06
6.25936e-06
5.09199e-06
6.9223e-06
5.91414e-06
6.56042e-06
6.45845e-06
6.53845e-06
6.96308e-06
9.58712e-06
6.54174e-06
6.49864e-06
7.39619e-06
7.35269e-06
6.90891e-06
9.47842e-06
6.41714e-06
6.76603e-06
7.39348e-06
7.65115e-06
6.51025e-06
7.3073e-06
7.38466e-06
7.34375e-06
9.89111e-06
6.67168e-06
7.4704e-06
7.48527e-06
9.62615e-06
1.03536e-05
1.37596e-05
7.74116e-06
7.66693e-06
8.7944e-06
8.86073e-06
1.00978e-05
1.35995e-05
7.74513e-06
7.96889e-06
8.69081e-06
9.00355e-06
7.69778e-06
8.85292e-06
8.81221e-06
1.05957e-05
1.40076e-05
7.79502e-06
8.84176e-06
8.87787e-06
1.36972e-05
1.45426e-05
1.89018e-05
9.19847e-06
9.32801e-06
1.05697e-05
1.06195e-05
1.45638e-05
1.88724e-05
9.08013e-06
9.40952e-06
1.05969e-05
1.08511e-05
9.25637e-06
1.05791e-05
1.0629e-05
1.48522e-05
1.92735e-05
9.30385e-06
1.07112e-05
1.0636e-05
1.90013e-05
2.00541e-05
2.56002e-05
1.1102e-05
1.11587e-05
1.28968e-05
1.31321e-05
1.97902e-05
2.56494e-05
1.11484e-05
1.14249e-05
1.28538e-05
1.30368e-05
1.11444e-05
1.30163e-05
1.29254e-05
2.03902e-05
2.5495e-05
1.11505e-05
1.28898e-05
1.29163e-05
2.55002e-05
2.68794e-05
3.23134e-05
1.34861e-05
1.37671e-05
1.55175e-05
1.57487e-05
2.71578e-05
3.27398e-05
1.34671e-05
1.36132e-05
1.54487e-05
1.58803e-05
1.35714e-05
1.62736e-05
1.56032e-05
2.66509e-05
3.27032e-05
1.35545e-05
1.57832e-05
1.56093e-05
3.24555e-05
3.37179e-05
4.05729e-05
1.63687e-05
1.6483e-05
1.9111e-05
1.88148e-05
3.40743e-05
4.04234e-05
1.61903e-05
1.6692e-05
1.89212e-05
1.89964e-05
1.63355e-05
2.01445e-05
1.88561e-05
3.41994e-05
3.96381e-05
1.63332e-05
1.8732e-05
1.87536e-05
3.98189e-05
4.20429e-05
4.74464e-05
2.00288e-05
1.9636e-05
2.27566e-05
2.22587e-05
4.17868e-05
4.68588e-05
2.0011e-05
1.98402e-05
2.34028e-05
2.25817e-05
1.9817e-05
2.38179e-05
2.27962e-05
4.09423e-05
4.72674e-05
1.96759e-05
2.25996e-05
2.25532e-05
4.73973e-05
4.88291e-05
5.44688e-05
2.36902e-05
2.32549e-05
2.67351e-05
2.68925e-05
4.82104e-05
5.47251e-05
2.4569e-05
2.3528e-05
2.8311e-05
2.67688e-05
2.3751e-05
2.79216e-05
2.68923e-05
4.8727e-05
5.38728e-05
2.35133e-05
2.67161e-05
2.67888e-05
5.42597e-05
5.57712e-05
6.04421e-05
2.77871e-05
2.8199e-05
3.11785e-05
3.18436e-05
5.63585e-05
6.1289e-05
2.94996e-05
2.80077e-05
3.27257e-05
3.18726e-05
2.8068e-05
3.23655e-05
3.1435e-05
5.52585e-05
6.09956e-05
2.79861e-05
3.15849e-05
3.13868e-05
6.08828e-05
6.17512e-05
6.70463e-05
3.24847e-05
3.31328e-05
3.67663e-05
3.78941e-05
6.23768e-05
6.70322e-05
3.3828e-05
3.31211e-05
3.73974e-05
3.69722e-05
3.26097e-05
3.67429e-05
3.66682e-05
6.23232e-05
6.67206e-05
3.25905e-05
3.64795e-05
3.66237e-05
6.69419e-05
6.83587e-05
7.31074e-05
3.8205e-05
3.9539e-05
4.26761e-05
4.36552e-05
6.83565e-05
7.26171e-05
3.86267e-05
3.8352e-05
4.25404e-05
4.24982e-05
3.80258e-05
4.18993e-05
4.21607e-05
6.79247e-05
7.27191e-05
3.79424e-05
4.23318e-05
4.21133e-05
7.26589e-05
7.43531e-05
7.90276e-05
4.4239e-05
4.49118e-05
4.90855e-05
4.92851e-05
7.36813e-05
7.83204e-05
4.39623e-05
4.38954e-05
4.88009e-05
4.86784e-05
4.37166e-05
4.8198e-05
4.90321e-05
7.39697e-05
7.87141e-05
4.37029e-05
4.85801e-05
4.89023e-05
7.96522e-05
8.02811e-05
8.49316e-05
5.07649e-05
5.09043e-05
5.60717e-05
5.59012e-05
7.96769e-05
8.45556e-05
5.0583e-05
5.04382e-05
5.61396e-05
5.57332e-05
5.09648e-05
5.57638e-05
5.69362e-05
7.99767e-05
8.44746e-05
5.07422e-05
5.56294e-05
5.65455e-05
8.47824e-05
8.60945e-05
9.00201e-05
5.79264e-05
5.75593e-05
6.37196e-05
6.26844e-05
8.57161e-05
8.97279e-05
5.79643e-05
5.74389e-05
6.32003e-05
6.27314e-05
5.87833e-05
6.31565e-05
6.36401e-05
8.56169e-05
8.98992e-05
5.84379e-05
6.30982e-05
6.36574e-05
8.96904e-05
9.11429e-05
9.69189e-05
6.59035e-05
6.47395e-05
7.33748e-05
7.22163e-05
9.09098e-05
9.69201e-05
6.51568e-05
6.48576e-05
7.22501e-05
7.24736e-05
6.5433e-05
7.23791e-05
7.22855e-05
9.11499e-05
9.71856e-05
6.55679e-05
7.28401e-05
7.26154e-05
9.6711e-05
9.8509e-05
0.000102758
7.57849e-05
7.47114e-05
8.11032e-05
8.03342e-05
9.85333e-05
0.000102786
7.46454e-05
7.49789e-05
8.01313e-05
8.05791e-05
7.46898e-05
8.03657e-05
8.03648e-05
9.8758e-05
0.000102857
7.50405e-05
8.07344e-05
8.06746e-05
0.000102802
0.000103382
0.000103027
8.20055e-05
8.13237e-05
8.21217e-05
8.16528e-05
0.000103409
0.000103027
8.11244e-05
8.15502e-05
8.15007e-05
8.17818e-05
8.14347e-05
8.17732e-05
8.19289e-05
0.000103459
0.000103024
8.17107e-05
8.19176e-05
8.21112e-05
0.000103202
0.000102948
0.000100313
8.15063e-05
8.10961e-05
7.91228e-05
7.88465e-05
0.000102947
0.000100274
8.09606e-05
8.11859e-05
7.87597e-05
7.88596e-05
8.13718e-05
7.88776e-05
7.90127e-05
0.000102941
0.000100273
8.15306e-05
7.89771e-05
7.91103e-05
0.000100395
0.000100024
9.97818e-05
7.85891e-05
7.83427e-05
7.99012e-05
7.97326e-05
9.99837e-05
9.9728e-05
7.82761e-05
7.83535e-05
7.97082e-05
7.97653e-05
7.84683e-05
7.97253e-05
7.97779e-05
9.99824e-05
9.97538e-05
7.85463e-05
7.98003e-05
7.98077e-05
9.97681e-05
0.000100474
0.000105834
8.15986e-05
8.14575e-05
8.96591e-05
8.95885e-05
0.000100424
0.000105809
8.14392e-05
8.14936e-05
8.95685e-05
8.96185e-05
8.14877e-05
8.95699e-05
8.95986e-05
0.000100455
0.000105834
8.15067e-05
8.96194e-05
8.95949e-05
0.000105821
0.000107304
0.000114988
9.29362e-05
9.28817e-05
0.000104049
0.000104024
0.000107284
0.00011498
9.28613e-05
9.29086e-05
0.000104009
0.000104043
9.28921e-05
0.000104013
0.000104038
0.000107308
0.000114997
9.28826e-05
0.000104043
0.000104023
0.000114988
0.000116839
0.000127096
0.000108334
0.000108315
0.000122629
0.000122619
0.000116833
0.000127094
0.000108304
0.000108333
0.000122616
0.00012263
0.00010833
0.000122625
0.000122634
0.000116847
0.000127099
0.000108316
0.000122636
0.000122629
0.000127098
0.000129223
0.000137967
0.000127432
0.000127424
0.000139961
0.000139953
0.000129222
0.000137966
0.000127424
0.000127433
0.000139961
0.000139957
0.00012744
0.000139968
0.000139972
0.000129225
0.000137966
0.000127437
0.000139975
0.000139974
0.000137972
0.000139326
0.000143986
0.000143269
0.000143261
0.000150551
0.000150542
0.000139325
0.000143986
0.000143272
0.000143264
0.000150558
0.000150541
0.000143281
0.000150564
0.000150563
0.000139324
0.000143984
0.000143284
0.000150569
0.000150569
0.000143991
0.000144618
0.000146613
0.000152214
0.000152205
0.000155506
0.000155496
0.000144618
0.000146614
0.000152222
0.000152204
0.000155515
0.000155495
0.000152226
0.000155525
0.000155518
0.000144616
0.000146611
0.000152233
0.000155526
0.000155527
0.000146618
0.000146847
0.000147656
0.000156176
0.000156166
0.000157407
0.000157398
0.000146848
0.000147658
0.000156186
0.000156165
0.000157418
0.000157396
0.000156188
0.000157431
0.000157419
0.000146845
0.000147654
0.000156197
0.00015743
0.00015743
0.000147661
0.000147708
0.000148062
0.00015765
0.000157641
0.000158103
0.000158095
0.000147711
0.000148064
0.000157662
0.000157639
0.000158115
0.000158091
0.000157662
0.000158128
0.000158114
0.000147706
0.000148058
0.000157673
0.000158126
0.000158127
0.000148066
0.000148039
0.000148239
0.000158186
0.000158178
0.00015828
0.000158271
0.000148041
0.000148242
0.000158198
0.000158173
0.000158291
0.000158267
0.000158197
0.000158304
0.000158291
0.000148035
0.000148235
0.000158209
0.000158301
0.000158303
0.000148242
0.000148193
0.00014811
0.000158282
0.000158273
0.000158241
0.000158232
0.000148196
0.000148113
0.000158293
0.000158269
0.000158252
0.000158228
0.000158292
0.000158264
0.000158252
0.000148189
0.000148108
0.000158304
0.000158262
0.000158263
0.000148116
0.000148033
0.000148154
0.000158237
0.000158228
0.000158271
0.000158262
0.000148036
0.000148157
0.000158248
0.000158224
0.000158281
0.000158258
0.000158248
0.000158295
0.000158282
0.000148031
0.000148151
0.00015826
0.000158293
0.000158293
0.000148159
0.000148125
0.000148238
0.000158287
0.000158279
0.000158298
0.000158289
0.000148128
0.00014824
0.000158297
0.000158274
0.000158309
0.000158283
0.000158298
0.000158321
0.000158306
0.000148122
0.000148233
0.000158309
0.000158318
0.000158319
0.000148239
0.00014816
0.000148072
0.000158279
0.00015827
0.000158252
0.000158243
0.000148161
0.000148074
0.00015829
0.000158264
0.000158262
0.000158238
0.000158287
0.000158276
0.000158263
0.000148153
0.000148068
0.000158299
0.000158273
0.000158274
0.000148077
0.000148028
0.00014825
0.000158259
0.000158251
0.000158287
0.000158278
0.000148037
0.000148253
0.000158269
0.000158246
0.000158298
0.000158273
0.000158271
0.000158309
0.000158296
0.000148033
0.000148246
0.000158285
0.000158308
0.000158308
0.000148254
0.000148189
0.000148079
0.000158277
0.000158267
0.000158267
0.000158258
0.000148186
0.000148085
0.000158288
0.000158263
0.000158276
0.000158253
0.000158285
0.000158291
0.000158278
0.000148179
0.00014808
0.000158296
0.000158289
0.000158288
0.000148087
0.000148044
0.000148223
0.000158273
0.000158265
0.000158272
0.000158262
0.000148058
0.000148215
0.000158282
0.000158259
0.000158283
0.000158258
0.000158284
0.000158294
0.000158281
0.000148053
0.000148207
0.000158294
0.000158293
0.000158294
0.000148217
0.000148139
0.000148145
0.000158271
0.000158261
0.000158274
0.000158267
0.00014813
0.000148164
0.000158282
0.000158257
0.000158282
0.000158258
0.00015828
0.000158298
0.000158284
0.000148122
0.000148161
0.000158294
0.000158296
0.000158294
0.000148165
0.000148128
0.000148121
0.000158273
0.000158265
0.000158271
0.000158261
0.000148142
0.000148112
0.000158282
0.000158257
0.000158281
0.000158257
0.000158283
0.000158295
0.000158281
0.000148138
0.000148102
0.000158292
0.000158293
0.000158293
0.000148114
0.000148045
0.000148221
0.000158274
0.000158266
0.000158271
0.000158262
0.000148042
0.000148212
0.000158281
0.00015826
0.000158281
0.000158255
0.000158284
0.000158294
0.00015828
0.000148037
0.000148192
0.000158297
0.00015829
0.000158291
0.000148207
0.000148143
0.000148188
0.000158269
0.00015826
0.000158277
0.000158267
0.000148125
0.000148208
0.00015828
0.000158255
0.000158284
0.000158261
0.00015828
0.0001583
0.000158286
0.000148105
0.000148208
0.00015829
0.000158298
0.000158299
0.000148213
0.000148157
0.000148105
0.000158274
0.000158263
0.000158272
0.000158266
0.000148166
0.000148153
0.000158282
0.000158256
0.000158281
0.00015826
0.00015828
0.0001583
0.000158286
0.000148159
0.000148158
0.000158293
0.000158297
0.000158297
0.000148144
0.000148086
0.000148126
0.000158274
0.000158266
0.000158272
0.000158262
0.000148137
0.000148107
0.000158283
0.00015826
0.000158281
0.000158258
0.000158288
0.000158292
0.000158277
0.000148138
0.000148103
0.000158299
0.000158289
0.000158288
0.000148107
0.00014805
0.000148198
0.000158272
0.000158266
0.000158272
0.000158262
0.000148073
0.000148133
0.00015828
0.000158259
0.000158282
0.000158256
0.000158281
0.000158296
0.000158282
0.00014808
0.000148118
0.000158292
0.000158294
0.000158294
0.000148163
0.000148111
0.000148211
0.000158272
0.000158263
0.000158273
0.000158263
0.000148057
0.000148202
0.000158282
0.000158259
0.000158281
0.000158256
0.000158279
0.000158298
0.000158283
0.000148049
0.000148159
0.00015829
0.000158294
0.000158294
0.000148205
0.000148159
0.000148173
0.000158271
0.000158262
0.000158275
0.000158266
0.000148114
0.00014821
0.000158281
0.000158256
0.000158283
0.000158258
0.000158282
0.000158296
0.000158284
0.000148077
0.000148165
0.000158293
0.000158292
0.000158297
0.000148224
0.000148146
0.00014812
0.000158273
0.000158263
0.000158275
0.000158267
0.000148152
0.00014821
0.000158281
0.000158256
0.000158284
0.000158259
0.000158283
0.000158299
0.000158281
0.000148079
0.000148179
0.000158296
0.000158293
0.000158291
0.000148104
0.000148104
0.000148129
0.000158276
0.000158263
0.000158272
0.000158269
0.000148154
0.000148206
0.000158285
0.000158256
0.000158281
0.000158261
0.000158281
0.000158303
0.000158285
0.000148088
0.000148221
0.000158292
0.000158299
0.000158299
0.000148191
0.000148073
0.000148107
0.000158272
0.000158269
0.000158273
0.000158261
0.000148176
0.000148092
0.000158281
0.000158261
0.000158281
0.000158256
0.000158284
0.000158293
0.000158282
0.000148164
0.000148148
0.000158294
0.000158293
0.000158295
0.000148162
0.000148084
0.000148131
0.00015828
0.000158268
0.000158268
0.000158261
0.00014807
0.000148164
0.000158288
0.00015826
0.000158277
0.000158257
0.000158285
0.000158295
0.000158281
0.000148124
0.000148149
0.000158299
0.000158292
0.000158289
0.000148096
0.00014805
0.000148219
0.000158268
0.000158261
0.000158278
0.000158268
0.000148078
0.000148223
0.000158276
0.000158256
0.000158288
0.000158259
0.000158281
0.000158303
0.000158285
0.000148119
0.000148162
0.000158292
0.000158294
0.000158295
0.00014818
0.000148173
0.000148105
0.000158276
0.000158265
0.000158272
0.000158263
0.000148178
0.000148112
0.000158284
0.000158259
0.000158281
0.000158257
0.000158281
0.0001583
0.000158286
0.00014814
0.000148105
0.00015829
0.000158293
0.000158298
0.00014822
0.00014808
0.000148148
0.000158272
0.000158265
0.000158273
0.000158264
0.000148098
0.000148145
0.000158283
0.000158257
0.000158283
0.00015826
0.000158286
0.000158296
0.000158281
0.000148056
0.000148186
0.000158297
0.000158297
0.000158293
0.000148134
0.000148069
0.000148214
0.000158273
0.000158264
0.000158273
0.000158265
0.000148067
0.000148222
0.000158282
0.000158258
0.000158282
0.000158261
0.000158286
0.000158299
0.00015828
0.000148113
0.000148205
0.000158296
0.000158296
0.000158293
0.000148124
0.000148142
0.000148197
0.000158274
0.000158266
0.000158274
0.000158265
0.000148156
0.000148192
0.000158282
0.000158262
0.000158281
0.000158258
0.000158281
0.0001583
0.000158285
0.000148159
0.000148162
0.000158296
0.000158291
0.000158291
0.000148183
0.000148157
0.000148156
0.000158274
0.000158265
0.000158277
0.000158271
0.000148157
0.000148157
0.000158281
0.000158259
0.000158282
0.000158257
0.000158282
0.000158302
0.000158286
0.000148141
0.000148103
0.000158292
0.000158293
0.000158297
0.00014823
0.000148137
0.000148112
0.000158278
0.000158271
0.000158272
0.000158263
0.000148144
0.000148091
0.000158282
0.000158259
0.000158283
0.000158258
0.000158285
0.000158296
0.000158284
0.000148089
0.000148112
0.000158293
0.000158293
0.000158297
0.000148203
0.00014809
0.000148109
0.000158273
0.000158268
0.000158272
0.000158269
0.000148042
0.000148186
0.000158284
0.000158258
0.000158283
0.000158259
0.000158285
0.000158297
0.000158283
0.000148038
0.000148202
0.0001583
0.000158292
0.00015829
0.000148141
0.000148057
0.00014813
0.000158272
0.000158266
0.000158271
0.00015827
0.000148096
0.000148213
0.000158285
0.000158259
0.00015828
0.000158259
0.000158285
0.000158298
0.00015828
0.000148115
0.000148195
0.000158293
0.000158296
0.000158291
0.000148107
0.000148049
0.000148225
0.000158272
0.000158271
0.000158272
0.000158264
0.000148171
0.000148121
0.000158281
0.00015826
0.000158281
0.000158256
0.000158283
0.000158293
0.00015828
0.000148156
0.000148115
0.000158292
0.000158291
0.000158291
0.000148111
0.000148143
0.00014818
0.000158272
0.000158267
0.000158271
0.000158261
0.000148105
0.000148119
0.000158281
0.00015826
0.000158281
0.000158255
0.000158281
0.000158293
0.000158281
0.000148101
0.000148111
0.000158293
0.000158289
0.000158289
0.000148124
0.000148154
0.000148094
0.000158273
0.000158263
0.00015827
0.000158263
0.000148051
0.000148167
0.000158283
0.000158257
0.000158279
0.000158256
0.000158281
0.000158294
0.000158281
0.000148043
0.000148158
0.000158292
0.00015829
0.000158289
0.000148152
0.000148054
0.000148141
0.000158272
0.000158262
0.000158271
0.000158263
0.000148082
0.000148204
0.000158281
0.000158256
0.000158281
0.000158258
0.000158282
0.000158294
0.000158279
0.000148075
0.000148186
0.000158291
0.000158291
0.00015829
0.000148188
0.000148061
0.000148193
0.000158273
0.000158264
0.00015827
0.00015826
0.000148122
0.000148203
0.000158283
0.000158259
0.000158279
0.000158255
0.000158282
0.000158292
0.000158278
0.0001481
0.000148194
0.000158291
0.000158289
0.000158289
0.000148198
0.000148103
0.00014822
0.000158273
0.000158264
0.00015827
0.00015826
0.000148129
0.00014821
0.000158281
0.000158257
0.000158281
0.000158257
0.000158281
0.000158292
0.000158278
0.000148111
0.000148205
0.000158292
0.000158288
0.000158288
0.000148191
0.000148154
0.000148186
0.000158273
0.000158263
0.00015827
0.000158261
0.000148134
0.00014821
0.000158283
0.000158258
0.000158279
0.000158254
0.000158281
0.000158293
0.000158278
0.00014813
0.000148201
0.000158291
0.000158288
0.000158288
0.000148194
0.000148156
0.000148105
0.000158275
0.000158264
0.000158267
0.00015826
0.000148151
0.000148196
0.000158286
0.00015826
0.000158276
0.000158253
0.000158282
0.000158292
0.000158278
0.00014815
0.000148167
0.000158291
0.000158289
0.000158289
0.000148206
0.000148088
0.000148124
0.000158275
0.000158266
0.000158268
0.00015826
0.000148148
0.000148196
0.000158283
0.000158259
0.000158277
0.000158253
0.000158283
0.000158291
0.000158278
0.000148137
0.000148129
0.000158293
0.000158286
0.000158287
0.000148195
0.000148053
0.000148193
0.000158275
0.000158266
0.00015827
0.000158262
0.000148146
0.000148208
0.000158284
0.000158261
0.000158279
0.000158254
0.000158286
0.000158292
0.000158277
0.000148106
0.000148147
0.000158295
0.000158287
0.000158287
0.000148179
0.000148117
0.000148167
0.000158279
0.00015827
0.000158272
0.000158263
0.00014816
0.000148182
0.000158288
0.000158264
0.000158281
0.000158256
0.000158287
0.000158295
0.00015828
0.000148115
0.000148175
0.000158298
0.000158291
0.000158289
0.000148192
0.000148127
0.000148139
0.000158284
0.000158276
0.000158278
0.000158267
0.000148156
0.000148121
0.000158294
0.000158269
0.000158285
0.000158261
0.000158292
0.000158298
0.000158285
0.000148148
0.000148136
0.000158302
0.000158294
0.000158294
0.000148203
0.00014812
0.000148124
0.000158294
0.000158285
0.000158287
0.000158279
0.000148098
0.000148129
0.000158302
0.000158279
0.000158297
0.000158273
0.000158302
0.00015831
0.000158297
0.00014812
0.000148118
0.000158311
0.000158306
0.000158307
0.00014819
0.000148079
0.000148585
0.000158269
0.000158261
0.0001597
0.000159695
0.000148069
0.000148603
0.000158279
0.000158254
0.000159713
0.000159688
0.000158278
0.000159724
0.000159708
0.000148068
0.00014859
0.000158289
0.00015972
0.000159722
0.000148596
0.000149353
0.000157898
0.000157893
0.000149357
0.000157912
0.000157886
0.000152848
0.000152844
0.000152856
0.000157907
0.000149349
0.00015792
5.27315e-05
6.19029e-06
3.48071e-05
3.47262e-05
5.55302e-07
2.36024e-06
1.67113e-06
2.0337e-05
5.58635e-07
2.70675e-06
2.0412e-05
1.24182e-06
2.41393e-06
1.8558e-06
1.70216e-06
1.09546e-06
1.35426e-05
1.02293e-06
1.52698e-05
1.08898e-05
1.31619e-05
1.15606e-06
1.3528e-05
1.06535e-06
1.51873e-05
1.90871e-05
1.91649e-05
1.90493e-05
1.87864e-05
1.8934e-05
1.90423e-05
1.8876e-05
5.62525e-07
5.28414e-07
8.47388e-06
2.57282e-06
5.5804e-07
6.51771e-07
8.39646e-06
1.09398e-05
1.32088e-05
6.58719e-07
1.018e-05
1.08961e-06
5.08024e-06
6.15413e-07
1.01182e-05
1.43866e-06
1.49736e-06
1.49498e-06
2.41152e-06
1.71402e-06
1.70025e-06
1.29158e-06
1.84532e-05
1.20659e-06
2.10654e-05
1.7193e-05
1.92844e-05
1.34149e-06
1.84303e-05
1.28091e-06
2.10639e-05
1.90576e-05
1.91507e-05
1.8997e-05