/*--------------------------------*- C++ -*----------------------------------*\
| =========                 |                                                 |
| \\      /  F ield         | OpenFOAM: The Open Source CFD Toolbox           |
|  \\    /   O peration     | Version:  v1906                                 |
|   \\  /    A nd           | Web:      www.OpenFOAM.com                      |
|    \\/     M anipulation  |                                                 |
\*---------------------------------------------------------------------------*/
FoamFile
{
    version     2.0;
    format      ascii;
    class       volScalarField;
    location    "187.5";
    object      p;
}
// * * * * * * * * * * * * * * * * * * * * * * * * * * * * * * * * * * * * * //

dimensions      [0 2 -2 0 0 0 0];


internalField   nonuniform List<scalar> 
171728
(
0.00352803
0.0035272
0.00352718
0.00352824
0.00349212
0.00349082
0.00349077
0.0034938
0.00345474
0.00345292
0.00345299
0.00345526
0.00341023
0.00340873
0.00340847
0.00341114
0.00336185
0.00336042
0.00336025
0.00336294
0.00331349
0.00331221
0.00331198
0.00331462
0.00326555
0.00326439
0.0032643
0.00326683
0.00321826
0.00321715
0.00321713
0.00321966
0.00317206
0.00317102
0.00317103
0.00317357
0.00312683
0.00312587
0.00312589
0.00312843
0.00308249
0.00308165
0.00308166
0.00308418
0.00303888
0.00303813
0.00303813
0.00304065
0.00299582
0.00299516
0.00299514
0.00299767
0.00295318
0.00295263
0.00295259
0.00295515
0.00291081
0.00291039
0.00291032
0.00291284
0.00286877
0.00286835
0.00286834
0.00287085
0.00282708
0.00282664
0.00282657
0.00282903
0.00278566
0.0027853
0.00278533
0.00278773
0.00274465
0.00274434
0.00274427
0.00274668
0.00270397
0.00270365
0.00270366
0.00270591
0.00266363
0.00266333
0.0026633
0.00266551
0.00262358
0.0026233
0.00262329
0.00262543
0.00258384
0.00258357
0.00258358
0.00258569
0.00254436
0.00254414
0.00254412
0.00254625
0.00250517
0.00250496
0.00250495
0.00250715
0.00246623
0.00246604
0.00246603
0.00246833
0.00242755
0.00242736
0.00242737
0.00242972
0.00238909
0.00238891
0.00238896
0.00239135
0.00235085
0.00235078
0.00235075
0.00235318
0.00231289
0.00231282
0.00231283
0.00231522
0.00227515
0.00227511
0.00227509
0.00227745
0.00223761
0.00223758
0.00223762
0.0022399
0.00220033
0.00220034
0.00220035
0.00220255
0.00216331
0.00216341
0.0021634
0.00216551
0.00212669
0.00212678
0.00212677
0.00212878
0.00209065
0.00209074
0.00209073
0.00209263
0.00205525
0.00205533
0.00205534
0.00205725
0.00202044
0.00202056
0.00202056
0.00202247
0.00198563
0.00198576
0.00198576
0.00198768
0.00195016
0.00195022
0.00195022
0.00195222
0.00191404
0.00191408
0.00191408
0.00191621
0.00187788
0.00187792
0.00187792
0.00188007
0.00184266
0.00184255
0.00184255
0.00184458
0.00180836
0.00180801
0.00180801
0.00180993
0.00177476
0.00177417
0.00177417
0.001776
0.00174118
0.00174045
0.00174045
0.00174224
0.00170694
0.00170636
0.00170636
0.00170819
0.00167213
0.00167179
0.00167179
0.00167371
0.00163692
0.00163676
0.00163676
0.00163876
0.00160148
0.0016014
0.0016014
0.00160344
0.0015659
0.00156586
0.00156586
0.00156791
0.00153026
0.00153023
0.00153023
0.00153229
0.00149461
0.00149458
0.00149458
0.00149665
0.00145896
0.00145893
0.00145893
0.001461
0.00142331
0.00142328
0.00142328
0.00142534
0.00138766
0.00138763
0.00138763
0.0013897
0.001352
0.00135197
0.00135197
0.00135404
0.00131635
0.00131632
0.00131632
0.00131839
0.0012807
0.00128067
0.00128067
0.00128273
0.00124504
0.00124501
0.00124501
0.00124708
0.00120939
0.00120936
0.00120936
0.00121143
0.00117374
0.00117371
0.00117371
0.00117577
0.00113808
0.00113805
0.00113805
0.00114012
0.00110243
0.0011024
0.0011024
0.00110447
0.00106678
0.00106675
0.00106675
0.00106881
0.00103112
0.00103109
0.00103109
0.00103316
0.000995472
0.000995442
0.000995443
0.000997506
0.000959821
0.00095979
0.000959791
0.000961854
0.000924169
0.000924136
0.000924136
0.000926204
0.000888517
0.000888488
0.000888486
0.000890551
0.000852866
0.000852839
0.000852838
0.000854903
0.000817214
0.000817184
0.000817185
0.000819251
0.000781563
0.000781531
0.000781532
0.000783596
0.000745911
0.000745882
0.00074588
0.000747944
0.000710258
0.000710229
0.000710226
0.000712294
0.000674605
0.000674574
0.000674576
0.000676641
0.000638953
0.000638921
0.000638924
0.000640986
0.0006033
0.00060327
0.000603269
0.000605332
0.000567647
0.000567619
0.000567618
0.000569681
0.000531993
0.000531964
0.000531964
0.000534029
0.00049634
0.000496311
0.000496309
0.000498376
0.000460687
0.000460659
0.00046066
0.000462723
0.000425035
0.000425005
0.000425006
0.00042707
0.000389383
0.000389352
0.000389352
0.000391416
0.00035373
0.0003537
0.000353699
0.000355763
0.000318079
0.000318049
0.000318049
0.00032011
0.000282428
0.000282396
0.000282398
0.000284458
0.000246776
0.000246746
0.000246746
0.000248805
0.000211126
0.000211096
0.000211096
0.000213151
0.000175475
0.000175447
0.000175449
0.000177496
0.000139821
0.000139795
0.000139795
0.000141834
0.000104158
0.000104139
0.000104138
0.000106159
6.85036e-05
6.84811e-05
6.84795e-05
7.0468e-05
3.36832e-05
3.31593e-05
3.31564e-05
3.49428e-05
5.50022e-06
5.78688e-06
5.78726e-06
4.6955e-06
0.00353312
0.00353107
0.00353109
0.00353312
0.00353106
0.00353114
0.00353669
0.00353668
0.0035367
0.00353671
0.00353111
0.00353111
0.00353318
0.00353119
0.00353111
0.00353315
0.00352822
0.00349848
0.00352717
0.00352718
0.00350021
0.00350021
0.00352824
0.00349849
0.00352717
0.00352719
0.00350021
0.00350023
0.0035272
0.00350019
0.00350023
0.00352826
0.00349848
0.00352719
0.00350035
0.00350023
0.00349848
0.00349378
0.0034607
0.00349078
0.00349078
0.00346287
0.0034629
0.00349381
0.00346075
0.00349079
0.00349079
0.00346285
0.00346292
0.0034908
0.00346289
0.00346292
0.00349379
0.0034607
0.0034908
0.00346304
0.00346289
0.00346071
0.00345526
0.00341735
0.00345291
0.00345289
0.0034204
0.00342044
0.00345529
0.00341733
0.00345293
0.00345289
0.00342036
0.00342039
0.00345289
0.00342044
0.00342043
0.00345526
0.00341736
0.00345293
0.00342049
0.00342036
0.00341736
0.00341112
0.0033694
0.00340872
0.00340872
0.00337254
0.00337251
0.00341112
0.0033694
0.00340875
0.00340879
0.00337253
0.00337254
0.00340873
0.00337248
0.00337254
0.00341112
0.00336941
0.00340876
0.00337251
0.00337253
0.00336939
0.00336295
0.00332101
0.00336039
0.00336039
0.00332412
0.00332409
0.00336293
0.00332098
0.00336038
0.00336044
0.00332412
0.00332409
0.00336041
0.00332413
0.00332412
0.00336296
0.00332098
0.00336038
0.00332412
0.00332411
0.003321
0.00331465
0.00327314
0.00331213
0.00331219
0.00327624
0.00327621
0.00331462
0.00327311
0.00331212
0.00331213
0.00327623
0.00327625
0.00331212
0.00327624
0.00327623
0.00331462
0.00327316
0.00331209
0.00327615
0.00327623
0.00327313
0.00326684
0.00322585
0.00326433
0.00326436
0.00322883
0.00322883
0.00326684
0.00322587
0.00326433
0.00326435
0.00322883
0.00322884
0.00326433
0.00322886
0.0032288
0.00326686
0.00322585
0.00326432
0.00322883
0.00322883
0.00322584
0.00321967
0.00317958
0.00321713
0.00321714
0.00318244
0.00318245
0.00321968
0.00317959
0.00321712
0.00321714
0.00318246
0.00318246
0.00321712
0.00318245
0.00318243
0.00321968
0.00317961
0.00321713
0.00318246
0.00318245
0.0031796
0.00317356
0.00313432
0.00317102
0.00317102
0.00313707
0.00313709
0.00317358
0.00313433
0.00317103
0.00317105
0.00313708
0.00313709
0.00317102
0.0031371
0.00313707
0.00317359
0.00313435
0.00317102
0.00313708
0.00313707
0.00313432
0.00312843
0.00308995
0.00312586
0.00312587
0.00309261
0.0030926
0.00312843
0.00308997
0.00312587
0.00312589
0.00309262
0.00309261
0.00312588
0.00309261
0.00309261
0.00312846
0.00308998
0.00312587
0.0030926
0.00309261
0.00308996
0.00308417
0.0030463
0.00308161
0.00308164
0.00304892
0.00304893
0.00308421
0.00304634
0.00308163
0.00308166
0.00304893
0.00304894
0.00308162
0.00304894
0.00304895
0.00308422
0.00304635
0.00308164
0.00304894
0.00304895
0.00304632
0.00304063
0.00300328
0.0030381
0.00303813
0.00300587
0.0030059
0.00304067
0.00300329
0.00303812
0.00303814
0.00300587
0.00300586
0.00303812
0.00300589
0.00300586
0.00304069
0.00300327
0.00303813
0.00300586
0.00300586
0.00300329
0.00299765
0.00296067
0.00299512
0.00299516
0.00296321
0.00296325
0.00299765
0.00296068
0.00299513
0.00299513
0.0029632
0.0029632
0.00299515
0.00296326
0.00296323
0.00299766
0.00296066
0.00299515
0.00296319
0.00296323
0.00296071
0.00295513
0.0029183
0.00295262
0.00295263
0.00292086
0.00292087
0.00295511
0.00291842
0.00295261
0.00295258
0.00292085
0.00292083
0.00295262
0.00292088
0.0029208
0.00295511
0.00291834
0.00295262
0.00292081
0.00292079
0.00291831
0.0029128
0.00287632
0.00291031
0.00291038
0.00287881
0.00287871
0.00291292
0.00287625
0.00291029
0.00291032
0.00287882
0.00287878
0.0029103
0.00287871
0.00287874
0.00291285
0.00287631
0.0029103
0.00287878
0.00287876
0.00287627
0.00287087
0.00283452
0.00286837
0.00286834
0.00283694
0.002837
0.00287085
0.00283448
0.00286837
0.00286835
0.00283694
0.00283698
0.00286831
0.002837
0.00283696
0.00287087
0.00283441
0.00286831
0.00283698
0.00283697
0.00283439
0.00282919
0.00279296
0.00282667
0.00282664
0.0027956
0.00279565
0.00282912
0.00279302
0.00282667
0.00282658
0.00279559
0.00279567
0.00282656
0.00279565
0.00279571
0.00282904
0.00279309
0.00282657
0.00279567
0.0027957
0.00279308
0.00278763
0.00275193
0.0027852
0.0027853
0.00275454
0.00275454
0.00278768
0.00275196
0.00278521
0.00278533
0.00275453
0.00275445
0.00278533
0.00275453
0.00275445
0.00278775
0.0027519
0.00278533
0.00275444
0.00275445
0.00275194
0.00274666
0.00271113
0.00274431
0.00274434
0.00271376
0.00271378
0.00274668
0.00271115
0.0027443
0.00274427
0.00271376
0.00271377
0.0027443
0.00271377
0.00271375
0.00274665
0.00271114
0.0027443
0.00271377
0.00271376
0.00271111
0.00270592
0.00267065
0.00270364
0.00270366
0.00267336
0.00267337
0.00270593
0.00267066
0.00270364
0.00270365
0.00267337
0.00267336
0.00270362
0.00267337
0.00267337
0.00270594
0.00267066
0.00270363
0.00267335
0.00267336
0.00267065
0.00266551
0.00263053
0.00266331
0.00266333
0.00263327
0.00263325
0.00266551
0.00263055
0.0026633
0.00266331
0.00263327
0.00263328
0.00266332
0.00263326
0.00263326
0.00266551
0.00263052
0.00266331
0.00263328
0.00263326
0.00263053
0.00262544
0.00259073
0.00262329
0.00262329
0.00259349
0.00259348
0.00262545
0.00259074
0.00262329
0.0026233
0.00259348
0.00259348
0.00262329
0.00259348
0.00259349
0.00262543
0.00259073
0.00262329
0.00259349
0.00259349
0.00259073
0.00258568
0.00255124
0.00258359
0.00258357
0.00255396
0.00255397
0.00258568
0.00255126
0.00258358
0.00258358
0.00255396
0.00255396
0.00258358
0.00255397
0.00255396
0.00258569
0.00255126
0.00258358
0.00255395
0.00255396
0.00255126
0.00254622
0.00251216
0.00254412
0.00254413
0.00251474
0.00251473
0.00254624
0.00251213
0.00254412
0.00254413
0.00251474
0.00251472
0.00254414
0.00251473
0.00251472
0.00254625
0.00251214
0.00254413
0.00251473
0.00251472
0.00251213
0.00250718
0.00247325
0.00250496
0.00250496
0.00247572
0.00247574
0.00250715
0.00247329
0.00250496
0.00250495
0.00247572
0.00247574
0.00250495
0.00247574
0.00247574
0.00250715
0.00247328
0.00250495
0.00247574
0.00247574
0.00247329
0.0024683
0.00243469
0.00246602
0.00246603
0.00243701
0.002437
0.00246834
0.00243465
0.00246602
0.00246603
0.00243702
0.00243702
0.00246603
0.002437
0.002437
0.00246832
0.00243468
0.00246603
0.00243701
0.002437
0.00243466
0.00242973
0.00239629
0.00242737
0.00242737
0.00239852
0.0023985
0.0024297
0.00239627
0.00242737
0.00242738
0.00239855
0.00239853
0.00242736
0.00239849
0.00239852
0.00242975
0.00239627
0.00242737
0.00239854
0.00239853
0.00239628
0.00239137
0.00235808
0.00238893
0.00238891
0.00236029
0.00236028
0.00239134
0.00235809
0.00238896
0.00238894
0.00236028
0.00236028
0.00238894
0.00236031
0.00236029
0.00239133
0.00235809
0.00238894
0.00236027
0.00236028
0.00235809
0.00235316
0.00232008
0.00235077
0.00235076
0.00232225
0.00232228
0.00235319
0.0023201
0.00235074
0.00235075
0.00232225
0.00232228
0.00235076
0.00232229
0.00232228
0.00235318
0.00232011
0.00235076
0.00232229
0.00232228
0.00232012
0.00231518
0.00228232
0.00231279
0.00231282
0.00228449
0.00228453
0.0023152
0.00228235
0.0023128
0.00231281
0.00228451
0.00228449
0.00231282
0.00228451
0.00228451
0.00231521
0.00228233
0.00231282
0.0022845
0.00228451
0.00228234
0.00227744
0.00224475
0.00227509
0.00227512
0.00224696
0.00224696
0.00227746
0.00224475
0.0022751
0.00227509
0.00224695
0.00224698
0.00227511
0.00224695
0.00224698
0.00227744
0.00224476
0.00227511
0.00224698
0.00224698
0.00224477
0.00223987
0.00220743
0.00223761
0.0022376
0.00220967
0.00220965
0.00223986
0.00220738
0.00223759
0.00223762
0.00220965
0.00220965
0.00223763
0.00220962
0.00220965
0.00223988
0.0022074
0.00223763
0.00220964
0.00220965
0.00220741
0.00220257
0.00217035
0.00220039
0.00220037
0.00217263
0.00217261
0.00220253
0.00217034
0.00220037
0.00220036
0.00217262
0.00217261
0.00220037
0.00217262
0.00217262
0.00220254
0.00217034
0.00220037
0.00217262
0.00217262
0.00217034
0.00216552
0.00213361
0.00216341
0.00216338
0.00213591
0.00213586
0.00216551
0.0021336
0.0021634
0.00216339
0.0021359
0.00213588
0.0021634
0.00213589
0.00213587
0.00216551
0.0021336
0.0021634
0.00213588
0.00213587
0.00213358
0.00212882
0.0020974
0.00212679
0.00212677
0.00209968
0.00209969
0.00212882
0.00209742
0.00212679
0.00212677
0.00209969
0.00209968
0.00212676
0.00209969
0.00209964
0.00212881
0.0020974
0.00212675
0.00209968
0.00209964
0.00209734
0.00209269
0.00206186
0.00209073
0.00209073
0.00206411
0.00206412
0.0020927
0.00206188
0.00209073
0.00209073
0.00206409
0.00206411
0.00209069
0.00206412
0.00206408
0.00209269
0.00206188
0.0020907
0.00206412
0.0020641
0.00206187
0.00205722
0.00202701
0.00205533
0.00205533
0.00202919
0.00202922
0.00205725
0.00202702
0.0020553
0.00205532
0.0020292
0.00202922
0.0020553
0.00202921
0.00202921
0.00205724
0.00202701
0.00205532
0.00202921
0.0020292
0.00202704
0.00202244
0.0019923
0.00202054
0.00202057
0.0019945
0.00199452
0.00202245
0.0019923
0.00202055
0.00202057
0.00199453
0.00199453
0.00202057
0.00199453
0.00199456
0.00202244
0.0019923
0.00202056
0.00199452
0.00199455
0.00199233
0.00198766
0.00195696
0.00198574
0.00198575
0.00195917
0.00195917
0.00198766
0.00195696
0.00198577
0.00198576
0.00195918
0.00195917
0.00198579
0.00195918
0.00195919
0.00198766
0.00195696
0.00198578
0.00195917
0.00195918
0.00195696
0.00195222
0.00192102
0.00195022
0.00195021
0.00192316
0.00192315
0.00195221
0.00192101
0.00195022
0.00195021
0.00192316
0.00192315
0.00195022
0.00192315
0.00192315
0.00195221
0.00192101
0.00195022
0.00192315
0.00192315
0.00192101
0.00191621
0.00188484
0.00191409
0.00191408
0.00188692
0.00188691
0.00191621
0.00188484
0.00191409
0.00191408
0.00188692
0.00188692
0.00191408
0.00188691
0.00188691
0.00191621
0.00188484
0.00191408
0.00188691
0.00188691
0.00188484
0.00188007
0.00184923
0.00187793
0.00187792
0.00185131
0.00185131
0.00188007
0.00184923
0.00187792
0.00187792
0.00185131
0.00185131
0.00187792
0.00185131
0.00185131
0.00188007
0.00184923
0.00187792
0.00185131
0.00185131
0.00184923
0.00184458
0.00181449
0.00184255
0.00184255
0.00181658
0.00181658
0.00184458
0.00181449
0.00184255
0.00184255
0.00181658
0.00181658
0.00184255
0.00181658
0.00181658
0.00184458
0.00181449
0.00184255
0.00181658
0.00181658
0.00181449
0.00180993
0.00178049
0.00180801
0.00180801
0.00178258
0.00178258
0.00180993
0.00178049
0.00180801
0.00180801
0.00178258
0.00178259
0.00180801
0.00178259
0.00178259
0.00180993
0.00178049
0.00180801
0.00178258
0.00178259
0.00178049
0.001776
0.00174676
0.00177417
0.00177417
0.00174891
0.00174891
0.001776
0.00174676
0.00177417
0.00177417
0.00174891
0.00174891
0.00177417
0.00174891
0.00174891
0.001776
0.00174676
0.00177417
0.00174891
0.00174891
0.00174676
0.00174224
0.00171278
0.00174045
0.00174045
0.00171493
0.00171493
0.00174224
0.00171278
0.00174045
0.00174045
0.00171493
0.00171493
0.00174045
0.00171493
0.00171493
0.00174224
0.00171278
0.00174045
0.00171493
0.00171493
0.00171278
0.00170819
0.00167837
0.00170636
0.00170636
0.00168048
0.00168048
0.00170819
0.00167838
0.00170636
0.00170636
0.00168048
0.00168048
0.00170636
0.00168048
0.00168048
0.00170819
0.00167837
0.00170636
0.00168048
0.00168048
0.00167837
0.00167371
0.00164348
0.00167179
0.00167179
0.00164556
0.00164556
0.00167371
0.00164348
0.00167179
0.00167179
0.00164556
0.00164556
0.00167179
0.00164556
0.00164556
0.00167371
0.00164348
0.00167179
0.00164556
0.00164556
0.00164348
0.00163876
0.0016082
0.00163676
0.00163676
0.00161026
0.00161026
0.00163876
0.0016082
0.00163676
0.00163676
0.00161026
0.00161026
0.00163676
0.00161026
0.00161026
0.00163876
0.0016082
0.00163676
0.00161026
0.00161026
0.0016082
0.00160344
0.00157269
0.0016014
0.0016014
0.00157475
0.00157475
0.00160344
0.00157269
0.0016014
0.0016014
0.00157475
0.00157475
0.0016014
0.00157475
0.00157475
0.00160344
0.00157269
0.0016014
0.00157475
0.00157475
0.00157269
0.00156791
0.00153708
0.00156586
0.00156586
0.00153914
0.00153914
0.00156791
0.00153708
0.00156586
0.00156586
0.00153914
0.00153914
0.00156586
0.00153914
0.00153914
0.00156791
0.00153708
0.00156586
0.00153914
0.00153914
0.00153708
0.00153229
0.00150143
0.00153023
0.00153023
0.00150349
0.00150349
0.00153229
0.00150143
0.00153023
0.00153023
0.00150349
0.00150349
0.00153023
0.00150349
0.00150349
0.00153229
0.00150143
0.00153023
0.00150349
0.00150349
0.00150143
0.00149665
0.00146579
0.00149458
0.00149458
0.00146785
0.00146785
0.00149664
0.00146579
0.00149458
0.00149458
0.00146785
0.00146785
0.00149458
0.00146785
0.00146785
0.00149665
0.00146579
0.00149458
0.00146785
0.00146785
0.00146579
0.001461
0.00143014
0.00145893
0.00145893
0.00143219
0.00143219
0.001461
0.00143014
0.00145893
0.00145893
0.00143219
0.00143219
0.00145893
0.00143219
0.00143219
0.001461
0.00143013
0.00145893
0.00143219
0.00143219
0.00143013
0.00142534
0.00139448
0.00142328
0.00142328
0.00139654
0.00139654
0.00142534
0.00139449
0.00142328
0.00142328
0.00139654
0.00139654
0.00142328
0.00139654
0.00139654
0.00142534
0.00139448
0.00142328
0.00139654
0.00139654
0.00139448
0.00138969
0.00135883
0.00138763
0.00138763
0.00136089
0.00136089
0.00138969
0.00135883
0.00138763
0.00138763
0.00136089
0.00136089
0.00138763
0.00136089
0.00136089
0.00138969
0.00135883
0.00138763
0.00136089
0.00136089
0.00135883
0.00135404
0.00132318
0.00135197
0.00135197
0.00132524
0.00132524
0.00135404
0.00132318
0.00135197
0.00135197
0.00132524
0.00132524
0.00135197
0.00132524
0.00132524
0.00135404
0.00132318
0.00135197
0.00132524
0.00132524
0.00132318
0.00131839
0.00128752
0.00131632
0.00131632
0.00128958
0.00128958
0.00131839
0.00128752
0.00131632
0.00131632
0.00128958
0.00128958
0.00131632
0.00128958
0.00128958
0.00131839
0.00128752
0.00131632
0.00128958
0.00128958
0.00128752
0.00128273
0.00125187
0.00128067
0.00128067
0.00125393
0.00125393
0.00128273
0.00125187
0.00128067
0.00128067
0.00125393
0.00125393
0.00128067
0.00125393
0.00125393
0.00128273
0.00125187
0.00128067
0.00125393
0.00125393
0.00125187
0.00124708
0.00121622
0.00124501
0.00124501
0.00121827
0.00121827
0.00124708
0.00121622
0.00124501
0.00124501
0.00121827
0.00121827
0.00124501
0.00121827
0.00121827
0.00124708
0.00121622
0.00124501
0.00121827
0.00121827
0.00121622
0.00121143
0.00118056
0.00120936
0.00120936
0.00118262
0.00118262
0.00121143
0.00118056
0.00120936
0.00120936
0.00118262
0.00118262
0.00120936
0.00118262
0.00118262
0.00121143
0.00118056
0.00120936
0.00118262
0.00118262
0.00118056
0.00117577
0.00114491
0.00117371
0.00117371
0.00114697
0.00114697
0.00117577
0.00114491
0.00117371
0.00117371
0.00114697
0.00114697
0.00117371
0.00114697
0.00114697
0.00117577
0.00114491
0.00117371
0.00114697
0.00114697
0.00114491
0.00114012
0.00110926
0.00113805
0.00113805
0.00111131
0.00111131
0.00114012
0.00110926
0.00113805
0.00113805
0.00111131
0.00111131
0.00113805
0.00111132
0.00111132
0.00114012
0.00110926
0.00113805
0.00111132
0.00111132
0.00110926
0.00110447
0.0010736
0.0011024
0.0011024
0.00107566
0.00107566
0.00110446
0.0010736
0.0011024
0.0011024
0.00107566
0.00107566
0.0011024
0.00107566
0.00107566
0.00110446
0.0010736
0.0011024
0.00107566
0.00107566
0.0010736
0.00106881
0.00103795
0.00106675
0.00106675
0.00104001
0.00104001
0.00106881
0.00103795
0.00106675
0.00106675
0.00104001
0.00104001
0.00106675
0.00104001
0.00104001
0.00106881
0.00103795
0.00106675
0.00104001
0.00104001
0.00103795
0.00103316
0.0010023
0.00103109
0.0010311
0.00100435
0.00100435
0.00103316
0.0010023
0.00103109
0.0010311
0.00100435
0.00100435
0.00103109
0.00100436
0.00100436
0.00103316
0.0010023
0.00103109
0.00100436
0.00100436
0.0010023
0.000997505
0.000966647
0.000995441
0.000995442
0.000968703
0.000968702
0.000997506
0.000966645
0.000995442
0.000995443
0.000968703
0.000968701
0.000995442
0.000968702
0.000968703
0.000997507
0.000966645
0.000995442
0.000968702
0.000968703
0.000966645
0.000961854
0.000930996
0.000959789
0.000959788
0.000933053
0.000933052
0.000961853
0.000930994
0.000959789
0.000959789
0.000933053
0.000933051
0.00095979
0.000933051
0.000933052
0.000961855
0.000930992
0.00095979
0.000933049
0.000933051
0.000930995
0.000926204
0.000895344
0.000924139
0.000924137
0.000897401
0.000897403
0.000926201
0.000895345
0.000924139
0.000924137
0.000897401
0.000897402
0.000924138
0.000897403
0.000897401
0.000926202
0.000895343
0.000924138
0.000897401
0.0008974
0.000895342
0.000890553
0.000859694
0.000888489
0.000888488
0.00086175
0.00086175
0.000890552
0.000859694
0.000888489
0.000888488
0.000861749
0.00086175
0.000888488
0.000861749
0.00086175
0.000890551
0.000859693
0.000888486
0.000861752
0.000861751
0.000859694
0.000854904
0.000824039
0.000852839
0.000852839
0.000826095
0.000826095
0.000854903
0.000824038
0.000852839
0.000852838
0.000826095
0.000826097
0.000852838
0.000826095
0.000826096
0.000854902
0.00082404
0.000852839
0.000826097
0.000826096
0.000824041
0.000819249
0.000788388
0.000817185
0.000817185
0.000790445
0.000790445
0.000819248
0.000788388
0.000817184
0.000817185
0.000790445
0.000790445
0.000817185
0.000790446
0.000790445
0.000819249
0.000788389
0.000817186
0.000790446
0.000790444
0.000788387
0.000783596
0.000752738
0.000781531
0.000781531
0.000754794
0.000754794
0.000783595
0.000752739
0.000781531
0.000781532
0.000754794
0.000754794
0.000781531
0.000754796
0.000754796
0.000783597
0.000752737
0.00078153
0.000754794
0.000754795
0.000752737
0.000747946
0.000717084
0.00074588
0.00074588
0.000719142
0.000719141
0.000747947
0.000717084
0.00074588
0.00074588
0.000719141
0.000719142
0.000745881
0.00071914
0.000719142
0.000747946
0.000717083
0.00074588
0.000719141
0.000719143
0.000717085
0.000712292
0.000681431
0.000710228
0.000710228
0.000683489
0.000683489
0.000712293
0.000681431
0.000710227
0.000710227
0.00068349
0.00068349
0.00071023
0.000683487
0.000683487
0.000712291
0.000681432
0.000710229
0.000683491
0.000683489
0.000681432
0.000676639
0.000645778
0.000674576
0.000674576
0.000647835
0.000647835
0.000676639
0.000645779
0.000674576
0.000674576
0.000647836
0.000647836
0.000674576
0.000647836
0.000647835
0.000676639
0.000645779
0.000674577
0.000647836
0.000647834
0.000645777
0.000640986
0.000610127
0.000638922
0.000638922
0.000612184
0.000612184
0.000640986
0.000610128
0.000638923
0.000638924
0.000612182
0.000612182
0.000638921
0.000612185
0.000612184
0.000640988
0.000610127
0.000638923
0.000612183
0.000612182
0.000610124
0.000605334
0.000574474
0.000603269
0.000603269
0.000576531
0.00057653
0.000605335
0.000574475
0.000603269
0.00060327
0.000576531
0.000576529
0.000603269
0.000576531
0.000576532
0.000605335
0.000574473
0.000603267
0.00057653
0.000576532
0.000574474
0.000569682
0.000538821
0.000567618
0.000567618
0.000540876
0.000540875
0.000569683
0.000538818
0.000567617
0.000567616
0.000540877
0.000540877
0.000567617
0.000540876
0.000540878
0.000569682
0.000538818
0.000567617
0.000540875
0.000540877
0.000538821
0.00053403
0.000503166
0.000531963
0.000531961
0.000505223
0.000505225
0.000534026
0.000503167
0.000531965
0.000531963
0.000505222
0.000505225
0.000531966
0.000505224
0.000505224
0.000534027
0.000503167
0.000531965
0.000505223
0.000505223
0.000503168
0.000498375
0.000467512
0.000496311
0.00049631
0.00046957
0.000469571
0.000498374
0.000467515
0.000496312
0.000496311
0.000469569
0.000469571
0.000496313
0.00046957
0.000469569
0.000498374
0.000467515
0.00049631
0.000469572
0.000469571
0.000467514
0.00046272
0.000431861
0.000460658
0.00046066
0.000433917
0.000433915
0.000462723
0.000431861
0.000460657
0.00046066
0.000433917
0.000433916
0.000460659
0.000433916
0.000433916
0.000462723
0.000431861
0.000460659
0.000433916
0.000433917
0.000431861
0.000427069
0.000396209
0.000425005
0.000425006
0.000398264
0.000398263
0.000427069
0.000396207
0.000425005
0.000425006
0.000398264
0.000398263
0.000425004
0.000398264
0.000398265
0.00042707
0.000396207
0.000425006
0.000398263
0.000398263
0.000396208
0.000391417
0.000360556
0.000389352
0.000389351
0.000362613
0.000362613
0.000391415
0.000360556
0.000389352
0.000389351
0.000362612
0.000362613
0.000389353
0.000362613
0.000362612
0.000391415
0.000360555
0.000389353
0.000362612
0.000362611
0.000360555
0.000355764
0.000324903
0.000353701
0.0003537
0.00032696
0.00032696
0.000355762
0.000324904
0.000353701
0.0003537
0.000326959
0.00032696
0.000353702
0.00032696
0.000326959
0.000355763
0.000324903
0.0003537
0.000326961
0.00032696
0.000324903
0.00032011
0.000289252
0.000318049
0.00031805
0.000291308
0.000291307
0.00032011
0.000289252
0.000318049
0.000318049
0.000291309
0.000291309
0.000318049
0.000291308
0.000291308
0.00032011
0.000289252
0.000318049
0.000291308
0.000291307
0.000289252
0.000284456
0.000253604
0.000282398
0.000282397
0.000255658
0.000255657
0.000284457
0.000253602
0.000282396
0.000282396
0.000255659
0.000255659
0.000282397
0.000255658
0.000255657
0.000284457
0.000253602
0.000282398
0.000255656
0.000255656
0.000253602
0.000248806
0.000217955
0.000246748
0.000246746
0.000220006
0.000220006
0.000248804
0.000217954
0.000246748
0.000246748
0.000220005
0.000220005
0.000246746
0.000220008
0.000220007
0.000248805
0.000217954
0.000246746
0.000220008
0.000220007
0.000217953
0.000213154
0.000182304
0.000211098
0.000211096
0.000184353
0.000184354
0.000213151
0.000182304
0.000211098
0.000211097
0.000184353
0.000184354
0.000211097
0.000184356
0.000184356
0.000213152
0.000182305
0.000211096
0.000184356
0.000184356
0.000182305
0.000177496
0.000146655
0.000175446
0.000175445
0.000148701
0.000148702
0.000177494
0.000146655
0.000175446
0.000175446
0.000148702
0.000148703
0.000175448
0.000148702
0.000148702
0.000177496
0.000146655
0.000175447
0.000148701
0.000148702
0.000146655
0.000141833
0.000111005
0.000139794
0.000139794
0.000113046
0.000113047
0.000141832
0.000111006
0.000139794
0.000139795
0.000113046
0.000113046
0.000139796
0.000113045
0.000113044
0.000141833
0.000111005
0.000139796
0.000113045
0.000113045
0.000111004
0.000106159
7.53494e-05
0.000104139
0.00010414
7.73828e-05
7.73826e-05
0.000106159
7.5351e-05
0.00010414
0.00010414
7.73821e-05
7.73819e-05
0.000104139
7.73825e-05
7.73814e-05
0.000106158
7.53486e-05
0.000104139
7.73817e-05
7.73804e-05
7.53474e-05
7.04693e-05
3.97777e-05
6.84804e-05
6.84806e-05
4.18243e-05
4.18248e-05
7.047e-05
3.97789e-05
6.84801e-05
6.84796e-05
4.18228e-05
4.18214e-05
6.84789e-05
4.18234e-05
4.18219e-05
7.04691e-05
3.9775e-05
6.8479e-05
4.18204e-05
4.18199e-05
3.97743e-05
3.4947e-05
7.76791e-06
3.31611e-05
3.31614e-05
1.05255e-05
1.05249e-05
3.49476e-05
7.76795e-06
3.31598e-05
3.31577e-05
1.05258e-05
1.05199e-05
3.31559e-05
1.05252e-05
1.05198e-05
3.49442e-05
7.76466e-06
3.31554e-05
1.05232e-05
1.05235e-05
7.76416e-06
4.69786e-06
5.78897e-06
5.78704e-06
4.69842e-06
5.78575e-06
5.78313e-06
5.50008e-06
5.49801e-06
5.49815e-06
5.78445e-06
4.69633e-06
5.78577e-06
0.00354017
0.0035431
0.00354186
0.00354188
0.00356717
0.00354365
0.00357205
0.00354329
0.00356716
0.00354381
0.00354337
0.00357222
0.003554
0.00357536
0.00357535
0.00351205
0.00352587
0.0035296
0.00350436
0.00350275
0.00350768
0.00351189
0.00352568
0.00352964
0.00350435
0.00352803
0.00352803
0.00352804
0.00350111
0.0035011
0.00350106
0.00350109
0.00351149
0.0035237
0.00352858
0.00351912
0.00353082
0.00350866
0.00351934
0.0035026
0.00350754
0.00351144
0.00352855
0.0035238
0.00351911
0.0035308
0.0035193
0.00350863
0.00352966
0.00352959
0.0035163
0.00350857
0.0035086
0.00348466
0.00349873
0.00349846
0.00348273
0.00349589
0.00348184
0.0034847
0.00349871
0.00349843
0.00348272
0.0034921
0.00349207
0.00349211
0.00346465
0.00346465
0.00346459
0.00346463
0.00348234
0.00349724
0.00349077
0.00348168
0.00349569
0.00348298
0.00348169
0.00349565
0.00348182
0.00348233
0.00349076
0.00349719
0.00348193
0.0034957
0.00348173
0.00348304
0.00349886
0.00349888
0.0034803
0.00348337
0.0034834
0.00344236
0.00345729
0.00345826
0.00344125
0.0034561
0.00344037
0.00344231
0.00345733
0.00345828
0.00344126
0.00345473
0.00345471
0.00345472
0.00342196
0.00342195
0.00342194
0.00342195
0.00344124
0.00345688
0.00345298
0.00344259
0.00345591
0.00344174
0.00344249
0.00345608
0.00344034
0.00344122
0.00345303
0.00345691
0.00344252
0.00345594
0.00344245
0.0034419
0.00345752
0.00345751
0.00343988
0.00344156
0.00344162
0.00339582
0.00341249
0.00341397
0.00339449
0.00341183
0.00339396
0.0033959
0.00341251
0.00341389
0.00339449
0.00341023
0.00341021
0.00341023
0.00337402
0.003374
0.00337399
0.003374
0.0033949
0.00341238
0.00340871
0.00339675
0.00341187
0.00339519
0.00339674
0.00341183
0.00339394
0.00339489
0.00340864
0.00341226
0.00339686
0.00341184
0.00339673
0.00339545
0.00341263
0.00341261
0.00339362
0.00339462
0.00339466
0.00334695
0.00336399
0.00336529
0.00334576
0.00336356
0.00334541
0.00334705
0.00336398
0.00336518
0.00334576
0.00336183
0.00336184
0.00336184
0.00332554
0.00332552
0.00332552
0.00332552
0.00334637
0.00336401
0.0033604
0.00334832
0.00336368
0.00334638
0.0033483
0.00336356
0.00334538
0.00334633
0.00336037
0.003364
0.00334823
0.00336368
0.00334823
0.00334709
0.00336401
0.003364
0.00334512
0.00334582
0.00334582
0.00329814
0.0033154
0.00331643
0.00329738
0.00331511
0.0032971
0.00329824
0.00331538
0.00331637
0.00329737
0.00331347
0.00331348
0.00331348
0.00327749
0.00327748
0.0032775
0.00327749
0.00329805