/*--------------------------------*- C++ -*----------------------------------*\
| =========                 |                                                 |
| \\      /  F ield         | OpenFOAM: The Open Source CFD Toolbox           |
|  \\    /   O peration     | Version:  v1906                                 |
|   \\  /    A nd           | Web:      www.OpenFOAM.com                      |
|    \\/     M anipulation  |                                                 |
\*---------------------------------------------------------------------------*/
FoamFile
{
    version     2.0;
    format      ascii;
    class       volScalarField;
    location    "50";
    object      epsilon;
}
// * * * * * * * * * * * * * * * * * * * * * * * * * * * * * * * * * * * * * //

dimensions      [0 2 -3 0 0 0 0];


internalField   nonuniform List<scalar> 
171728
(
4.49673e-07
9.21863e-08
9.83362e-08
3.29915e-08
4.60444e-07
1.14043e-07
1.18655e-07
4.79907e-08
4.77566e-07
1.47507e-07
1.50119e-07
6.99647e-08
4.93552e-07
1.873e-07
1.89276e-07
9.78462e-08
5.08992e-07
2.36767e-07
2.37826e-07
1.36103e-07
5.25754e-07
2.94092e-07
2.9483e-07
1.89162e-07
5.46321e-07
3.59223e-07
3.59445e-07
2.58374e-07
5.71793e-07
4.29249e-07
4.29419e-07
3.4008e-07
6.01112e-07
5.03276e-07
5.0349e-07
4.39312e-07
6.31506e-07
5.82185e-07
5.82298e-07
5.51909e-07
6.53931e-07
6.4787e-07
6.47906e-07
6.62613e-07
6.69741e-07
7.01457e-07
7.01477e-07
7.50125e-07
6.78939e-07
7.31503e-07
7.31524e-07
7.97976e-07
6.81403e-07
7.37999e-07
7.3802e-07
8.05449e-07
6.81776e-07
7.3878e-07
7.388e-07
8.06228e-07
6.8184e-07
7.38888e-07
7.3891e-07
8.06353e-07
6.81868e-07
7.38923e-07
7.38945e-07
8.06368e-07
6.81886e-07
7.38946e-07
7.38968e-07
8.06381e-07
6.81897e-07
7.38958e-07
7.38978e-07
8.06378e-07
6.81897e-07
7.38957e-07
7.38977e-07
8.06381e-07
6.81898e-07
7.38958e-07
7.38976e-07
8.06382e-07
6.81898e-07
7.3896e-07
7.38976e-07
8.06381e-07
6.81897e-07
7.38959e-07
7.38976e-07
8.06379e-07
6.81897e-07
7.38959e-07
7.38977e-07
8.06382e-07
6.81897e-07
7.38959e-07
7.38979e-07
8.06382e-07
6.81898e-07
7.38959e-07
7.38979e-07
8.06381e-07
6.81898e-07
7.38959e-07
7.38978e-07
8.06384e-07
6.81898e-07
7.38959e-07
7.38978e-07
8.06384e-07
6.81898e-07
7.3896e-07
7.38977e-07
8.06384e-07
6.81899e-07
7.3896e-07
7.38977e-07
8.06384e-07
6.819e-07
7.38959e-07
7.38977e-07
8.06385e-07
6.81899e-07
7.38959e-07
7.38977e-07
8.06385e-07
6.81898e-07
7.38959e-07
7.38976e-07
8.06385e-07
6.81899e-07
7.38959e-07
7.38977e-07
8.06385e-07
6.81899e-07
7.38959e-07
7.38978e-07
8.06383e-07
6.81899e-07
7.38961e-07
7.38978e-07
8.0638e-07
6.81898e-07
7.38962e-07
7.38978e-07
8.06384e-07
6.81898e-07
7.38962e-07
7.38978e-07
8.06383e-07
6.81898e-07
7.38961e-07
7.38978e-07
8.06384e-07
6.81897e-07
7.3896e-07
7.38978e-07
8.06384e-07
6.81898e-07
7.3896e-07
7.38978e-07
8.06383e-07
6.81898e-07
7.38958e-07
7.38978e-07
8.06384e-07
6.81902e-07
7.38957e-07
7.38977e-07
8.06383e-07
6.81903e-07
7.38957e-07
7.38977e-07
8.06382e-07
6.81902e-07
7.38958e-07
7.38977e-07
8.06379e-07
6.819e-07
7.38958e-07
7.38977e-07
8.06384e-07
6.81899e-07
7.38959e-07
7.38978e-07
8.06383e-07
6.81899e-07
7.38958e-07
7.38978e-07
8.06384e-07
6.81898e-07
7.38958e-07
7.38977e-07
8.06384e-07
6.81898e-07
7.38959e-07
7.38977e-07
8.06385e-07
6.81898e-07
7.38959e-07
7.38977e-07
8.06385e-07
6.81898e-07
7.38961e-07
7.38977e-07
8.06384e-07
6.81897e-07
7.3896e-07
7.38977e-07
8.06381e-07
6.81897e-07
7.38959e-07
7.38977e-07
8.06377e-07
6.81897e-07
7.38959e-07
7.38977e-07
8.0638e-07
6.81896e-07
7.38959e-07
7.38977e-07
8.06381e-07
6.81896e-07
7.38959e-07
7.38977e-07
8.06379e-07
6.81896e-07
7.38958e-07
7.38977e-07
8.06384e-07
6.81895e-07
7.38959e-07
7.38977e-07
8.06382e-07
6.81895e-07
7.38958e-07
7.38977e-07
8.06379e-07
6.81896e-07
7.38958e-07
7.38978e-07
8.06382e-07
6.81896e-07
7.38958e-07
7.38978e-07
8.06384e-07
6.81896e-07
7.38958e-07
7.38977e-07
8.06383e-07
6.81896e-07
7.38958e-07
7.38976e-07
8.06378e-07
6.81897e-07
7.38958e-07
7.38977e-07
8.06381e-07
6.81898e-07
7.38958e-07
7.38977e-07
8.06383e-07
6.81898e-07
7.38959e-07
7.38977e-07
8.06383e-07
6.819e-07
7.38959e-07
7.38977e-07
8.06383e-07
6.819e-07
7.38959e-07
7.38977e-07
8.06382e-07
6.81899e-07
7.38959e-07
7.38977e-07
8.0638e-07
6.81897e-07
7.38959e-07
7.38978e-07
8.06383e-07
6.81896e-07
7.3896e-07
7.38978e-07
8.06383e-07
6.81895e-07
7.38959e-07
7.38978e-07
8.06382e-07
6.81895e-07
7.38959e-07
7.38977e-07
8.0638e-07
6.81896e-07
7.3896e-07
7.38978e-07
8.06384e-07
6.81896e-07
7.38959e-07
7.38977e-07
8.06385e-07
6.81896e-07
7.38959e-07
7.38979e-07
8.06385e-07
6.81899e-07
7.38958e-07
7.38979e-07
8.06382e-07
6.81899e-07
7.38958e-07
7.38979e-07
8.0638e-07
6.819e-07
7.38958e-07
7.38979e-07
8.06382e-07
6.81901e-07
7.38958e-07
7.38979e-07
8.06384e-07
6.819e-07
7.38958e-07
7.38979e-07
8.06384e-07
6.81904e-07
7.38959e-07
7.38981e-07
8.06385e-07
6.81903e-07
7.38962e-07
7.38983e-07
8.06384e-07
6.81901e-07
7.38968e-07
7.38987e-07
8.06383e-07
6.81906e-07
7.38974e-07
7.38993e-07
8.06384e-07
6.81912e-07
7.38977e-07
7.38996e-07
8.06384e-07
6.81908e-07
7.38981e-07
7.38999e-07
8.06381e-07
6.81917e-07
7.38983e-07
7.39002e-07
8.06378e-07
6.81918e-07
7.38982e-07
7.39001e-07
8.06378e-07
6.81924e-07
7.38982e-07
7.38999e-07
8.06374e-07
6.8193e-07
7.38978e-07
7.38995e-07
8.06363e-07
6.81932e-07
7.38964e-07
7.38981e-07
8.06344e-07
6.81934e-07
7.38952e-07
7.3897e-07
8.06223e-07
6.80783e-07
7.2933e-07
7.29334e-07
7.94277e-07
3.52359e-08
9.74795e-08
8.83463e-08
3.23974e-08
8.79548e-08
8.92246e-08
4.52644e-07
4.52271e-07
4.52302e-07
4.52476e-07
8.98564e-08
9.57534e-08
3.27195e-08
9.1265e-08
9.70088e-08
3.2689e-08
3.54802e-08
4.84875e-08
1.07063e-07
9.13671e-08
1.21388e-07
1.04866e-07
3.2747e-08
4.63626e-08
9.12459e-08
9.20377e-08
1.0549e-07
1.06322e-07
1.08475e-07
1.06792e-07
1.21859e-07
3.30418e-08
4.65504e-08
1.10047e-07
1.11987e-07
1.24018e-07
4.69671e-08
4.95515e-08
6.96104e-08
1.28311e-07
1.12202e-07
1.51234e-07
1.3704e-07
4.7537e-08
6.85684e-08
1.12659e-07
1.13676e-07
1.37027e-07
1.38332e-07
1.28143e-07
1.38821e-07
1.48882e-07
4.76774e-08
6.8605e-08
1.30637e-07
1.41735e-07
1.52117e-07
6.84406e-08
7.10852e-08
9.71581e-08
1.59374e-07
1.45871e-07
1.86103e-07
1.75233e-07
7.01247e-08
9.66395e-08
1.45748e-07
1.47068e-07
1.74696e-07
1.76047e-07
1.55898e-07
1.76476e-07
1.78398e-07
7.01641e-08
9.66097e-08
1.59589e-07
1.78627e-07
1.8228e-07
9.58577e-08
9.91839e-08
1.34256e-07
1.96067e-07
1.86186e-07
2.28612e-07
2.22449e-07
9.86966e-08
1.33927e-07
1.85538e-07
1.86926e-07
2.21875e-07
2.23285e-07
1.87754e-07
2.23508e-07
2.2149e-07
9.86878e-08
1.34207e-07
1.91053e-07
2.24838e-07
2.23125e-07
1.3306e-07
1.37257e-07
1.85152e-07
2.40705e-07
2.35666e-07
2.80317e-07
2.78338e-07
1.36963e-07
1.85209e-07
2.35201e-07
2.36584e-07
2.77856e-07
2.78959e-07
2.34712e-07
2.78786e-07
2.78247e-07
1.37243e-07
1.85469e-07
2.35667e-07
2.79562e-07
2.78618e-07
1.84882e-07
1.89371e-07
2.51645e-07
2.94937e-07
2.93698e-07
3.42808e-07
3.42265e-07
1.89404e-07
2.51992e-07
2.93353e-07
2.94336e-07
3.42161e-07
3.42698e-07
2.9399e-07
3.4308e-07
3.42924e-07
1.89691e-07
2.52065e-07
2.94321e-07
3.43203e-07
3.43215e-07
2.52738e-07
2.57238e-07
3.29999e-07
3.59262e-07
3.58632e-07
4.11149e-07
4.10766e-07
2.57553e-07
3.3014e-07
3.58511e-07
3.58864e-07
4.10809e-07
4.10734e-07
3.59185e-07
4.10981e-07
4.1093e-07
2.5762e-07
3.30237e-07
3.59488e-07
4.11272e-07
4.11032e-07
3.3043e-07
3.39903e-07
4.24684e-07
4.29489e-07
4.29102e-07
4.84678e-07
4.84334e-07
3.39984e-07
4.24374e-07
4.29234e-07
4.29105e-07
4.84528e-07
4.84517e-07
4.29198e-07
4.84531e-07
4.84343e-07
3.40032e-07
4.24619e-07
4.29289e-07
4.84719e-07
4.84456e-07
4.24315e-07
4.39699e-07
5.33817e-07
5.03412e-07
5.03149e-07
5.62495e-07
5.62421e-07
4.39421e-07
5.33773e-07
5.03312e-07
5.03359e-07
5.62498e-07
5.62566e-07
5.0314e-07
5.6252e-07
5.62391e-07
4.39733e-07
5.34059e-07
5.03248e-07
5.62668e-07
5.62452e-07
5.33691e-07
5.52049e-07
6.46227e-07
5.82195e-07
5.82155e-07
6.33459e-07
6.33458e-07
5.52026e-07
6.4622e-07
5.8221e-07
5.82263e-07
6.33472e-07
6.33491e-07
5.82126e-07
6.3349e-07
6.33443e-07
5.52269e-07
6.46284e-07
5.82171e-07
6.33537e-07
6.33455e-07
6.46198e-07
6.62649e-07
7.36116e-07
6.47879e-07
6.47883e-07
6.89114e-07
6.89121e-07
6.62649e-07
7.36108e-07
6.47887e-07
6.47905e-07
6.891e-07
6.89131e-07
6.47872e-07
6.89116e-07
6.89116e-07
6.62699e-07
7.36143e-07
6.47878e-07
6.89137e-07
6.89103e-07
7.3612e-07
7.50125e-07
7.931e-07
7.01496e-07
7.01506e-07
7.27107e-07
7.27123e-07
7.50117e-07
7.93083e-07
7.01476e-07
7.01516e-07
7.27082e-07
7.27129e-07
7.01499e-07
7.2708e-07
7.27112e-07
7.50151e-07
7.93117e-07
7.0148e-07
7.27101e-07
7.27085e-07
7.93111e-07
7.9797e-07
8.04404e-07
7.31558e-07
7.31574e-07
7.37412e-07
7.37424e-07
7.97955e-07
8.04375e-07
7.31532e-07
7.3158e-07
7.37386e-07
7.37429e-07
7.31565e-07
7.37369e-07
7.37418e-07
7.97986e-07
8.04409e-07
7.31536e-07
7.3739e-07
7.37388e-07
8.04424e-07
8.05448e-07
8.05587e-07
7.38062e-07
7.38075e-07
7.38769e-07
7.38778e-07
8.05423e-07
8.05554e-07
7.38037e-07
7.3808e-07
7.38742e-07
7.38783e-07
7.38069e-07
7.38715e-07
7.38768e-07
8.05453e-07
8.05586e-07
7.38039e-07
7.38735e-07
7.38738e-07
8.056e-07
8.06236e-07
8.05772e-07
7.38846e-07
7.38856e-07
7.38937e-07
7.38944e-07
8.06203e-07
8.05735e-07
7.3882e-07
7.3886e-07
7.38908e-07
7.38948e-07
7.38843e-07
7.38877e-07
7.38924e-07
8.06232e-07
8.05767e-07
7.38814e-07
7.38898e-07
7.38894e-07
8.05764e-07
8.06381e-07
8.05817e-07
7.38956e-07
7.38962e-07
7.38983e-07
7.38987e-07
8.06344e-07
8.05776e-07
7.38926e-07
7.38966e-07
7.38952e-07
7.38992e-07
7.3894e-07
7.38916e-07
7.38964e-07
8.06373e-07
8.0581e-07
7.3891e-07
7.38938e-07
7.38934e-07
8.05779e-07
8.06423e-07
8.05831e-07
7.38997e-07
7.39002e-07
7.39014e-07
7.39017e-07
8.06382e-07
8.05791e-07
7.38967e-07
7.39006e-07
7.38983e-07
7.39023e-07
7.38979e-07
7.38942e-07
7.38993e-07
8.06413e-07
8.05825e-07
7.38949e-07
7.38963e-07
7.38963e-07
8.05794e-07
8.06433e-07
8.05837e-07
7.3903e-07
7.39033e-07
7.39027e-07
7.39027e-07
8.06393e-07
8.05799e-07
7.38999e-07
7.3904e-07
7.38995e-07
7.39037e-07
7.39008e-07
7.38958e-07
7.38998e-07
8.06425e-07
8.05832e-07
7.38978e-07
7.38979e-07
7.38969e-07
8.05792e-07
8.06439e-07
8.05835e-07
7.39035e-07
7.39035e-07
7.39027e-07
7.39032e-07
8.064e-07
8.05798e-07
7.39003e-07
7.39045e-07
7.38995e-07
7.39036e-07
7.39006e-07
7.38957e-07
7.38998e-07
8.06431e-07
8.05829e-07
7.38977e-07
7.38977e-07
7.38968e-07
8.05796e-07
8.06437e-07
8.05835e-07
7.39036e-07
7.39042e-07
7.39026e-07
7.39033e-07
8.064e-07
8.058e-07
7.39003e-07
7.39044e-07
7.38993e-07
7.39036e-07
7.39006e-07
7.38958e-07
7.38998e-07
8.06429e-07
8.05829e-07
7.38977e-07
7.38977e-07
7.38969e-07
8.05798e-07
8.06436e-07
8.05833e-07
7.39033e-07
7.39041e-07
7.39024e-07
7.39033e-07
8.06402e-07
8.05798e-07
7.39001e-07
7.39044e-07
7.38992e-07
7.39036e-07
7.39006e-07
7.3896e-07
7.38997e-07
8.06429e-07
8.05828e-07
7.38977e-07
7.38976e-07
7.38969e-07
8.05799e-07
8.06435e-07
8.05832e-07
7.39031e-07
7.39041e-07
7.39021e-07
7.39033e-07
8.06402e-07
8.05799e-07
7.39e-07
7.39044e-07
7.38992e-07
7.39036e-07
7.39005e-07
7.3896e-07
7.38996e-07
8.06427e-07
8.05827e-07
7.38977e-07
7.38976e-07
7.38968e-07
8.05797e-07
8.06434e-07
8.05833e-07
7.39029e-07
7.39041e-07
7.3902e-07
7.39033e-07
8.06402e-07
8.058e-07
7.39e-07
7.39044e-07
7.38992e-07
7.39035e-07
7.39005e-07
7.38959e-07
7.38997e-07
8.06427e-07
8.05827e-07
7.38976e-07
7.38978e-07
7.3897e-07
8.05799e-07
8.06436e-07
8.05832e-07
7.39028e-07
7.39041e-07
7.39019e-07
7.39033e-07
8.06403e-07
8.05801e-07
7.39e-07
7.39044e-07
7.38991e-07
7.39036e-07
7.39005e-07
7.38959e-07
7.38997e-07
8.06427e-07
8.05828e-07
7.38982e-07
7.3898e-07
7.38971e-07
8.05799e-07
8.06434e-07
8.05832e-07
7.39027e-07
7.39041e-07
7.39018e-07
7.39033e-07
8.06404e-07
8.058e-07
7.38999e-07
7.39044e-07
7.38991e-07
7.39036e-07
7.39005e-07
7.38959e-07
7.38997e-07
8.06428e-07
8.05829e-07
7.3898e-07
7.38979e-07
7.38972e-07
8.05798e-07
8.06434e-07
8.05832e-07
7.39026e-07
7.39041e-07
7.39018e-07
7.39032e-07
8.06403e-07
8.05799e-07
7.38999e-07
7.39044e-07
7.38991e-07
7.39036e-07
7.39006e-07
7.38959e-07
7.38998e-07
8.06429e-07
8.05829e-07
7.38982e-07
7.38979e-07
7.38974e-07
8.05801e-07
8.06433e-07
8.0583e-07
7.39026e-07
7.39041e-07
7.39017e-07
7.39032e-07
8.06402e-07
8.05801e-07
7.38999e-07
7.39045e-07
7.38991e-07
7.39036e-07
7.39007e-07
7.38959e-07
7.38999e-07
8.06429e-07
8.05829e-07
7.38982e-07
7.38978e-07
7.38974e-07
8.05801e-07
8.06433e-07
8.05831e-07
7.39025e-07
7.39041e-07
7.39017e-07
7.39033e-07
8.06404e-07
8.05799e-07
7.38999e-07
7.39045e-07
7.38992e-07
7.39036e-07
7.39007e-07
7.3896e-07
7.38999e-07
8.06429e-07
8.05828e-07
7.38982e-07
7.38978e-07
7.38974e-07
8.05801e-07
8.06433e-07
8.05834e-07
7.39025e-07
7.39041e-07
7.39017e-07
7.39033e-07
8.06402e-07
8.058e-07
7.39002e-07
7.39044e-07
7.38994e-07
7.39036e-07
7.39007e-07
7.38961e-07
7.38999e-07
8.06428e-07
8.05829e-07
7.38982e-07
7.38978e-07
7.38974e-07
8.05802e-07
8.06437e-07
8.05834e-07
7.39025e-07
7.39041e-07
7.39016e-07
7.39033e-07
8.06402e-07
8.058e-07
7.39003e-07
7.39044e-07
7.38994e-07
7.39036e-07
7.39008e-07
7.3896e-07
7.38999e-07
8.06429e-07
8.05829e-07
7.38983e-07
7.38977e-07
7.38975e-07
8.05802e-07
8.06435e-07
8.05831e-07
7.39024e-07
7.39041e-07
7.39015e-07
7.39033e-07
8.06403e-07
8.05799e-07
7.39002e-07
7.39044e-07
7.38994e-07
7.39036e-07
7.39008e-07
7.38959e-07
7.39e-07
8.06429e-07
8.05829e-07
7.38983e-07
7.38977e-07
7.38975e-07
8.05803e-07
8.06433e-07
8.0583e-07
7.39024e-07
7.39045e-07
7.39015e-07
7.39035e-07
8.06402e-07
8.05798e-07
7.39002e-07
7.39044e-07
7.38993e-07
7.39036e-07
7.39008e-07
7.38959e-07
7.38999e-07
8.06429e-07
8.05829e-07
7.38983e-07
7.38977e-07
7.38975e-07
8.05802e-07
8.06433e-07
8.05831e-07
7.39024e-07
7.39043e-07
7.39016e-07
7.39035e-07
8.06402e-07
8.05797e-07
7.39001e-07
7.39045e-07
7.38993e-07
7.39036e-07
7.39008e-07
7.38959e-07
7.38999e-07
8.06429e-07
8.05828e-07
7.38984e-07
7.38977e-07
7.38975e-07
8.05803e-07
8.06433e-07
8.05834e-07
7.39024e-07
7.39043e-07
7.39016e-07
7.39035e-07
8.064e-07
8.05798e-07
7.39002e-07
7.39044e-07
7.38994e-07
7.39036e-07
7.39007e-07
7.38959e-07
7.38999e-07
8.06428e-07
8.05828e-07
7.38983e-07
7.38979e-07
7.38974e-07
8.05801e-07
8.06436e-07
8.05834e-07
7.39025e-07
7.39044e-07
7.39016e-07
7.39036e-07
8.06401e-07
8.05797e-07
7.39002e-07
7.39044e-07
7.38994e-07
7.39036e-07
7.39006e-07
7.38961e-07
7.38998e-07
8.06428e-07
8.05828e-07
7.38982e-07
7.38978e-07
7.38973e-07
8.05798e-07
8.06436e-07
8.05833e-07
7.39025e-07
7.39044e-07
7.39016e-07
7.39036e-07
8.06401e-07
8.05798e-07
7.39003e-07
7.39044e-07
7.38995e-07
7.39036e-07
7.39006e-07
7.38963e-07
7.38997e-07
8.06428e-07
8.0583e-07
7.38981e-07
7.38978e-07
7.38973e-07
8.058e-07
8.06435e-07
8.05835e-07
7.39024e-07
7.39045e-07
7.39016e-07
7.39037e-07
8.06401e-07
8.05799e-07
7.39003e-07
7.39045e-07
7.38995e-07
7.39036e-07
7.39006e-07
7.38962e-07
7.38998e-07
8.0643e-07
8.0583e-07
7.38982e-07
7.38979e-07
7.38974e-07
8.058e-07
8.06437e-07
8.05833e-07
7.39024e-07
7.39045e-07
7.39016e-07
7.39037e-07
8.06402e-07
8.05799e-07
7.39003e-07
7.39045e-07
7.38994e-07
7.39037e-07
7.39006e-07
7.38961e-07
7.38999e-07
8.06429e-07
8.05829e-07
7.38982e-07
7.38978e-07
7.38975e-07
8.05801e-07
8.06435e-07
8.05832e-07
7.39024e-07
7.39045e-07
7.39015e-07
7.39036e-07
8.06402e-07
8.05798e-07
7.39002e-07
7.39046e-07
7.38993e-07
7.39038e-07
7.39007e-07
7.38961e-07
7.38999e-07
8.06429e-07
8.0583e-07
7.38983e-07
7.38979e-07
7.38975e-07
8.05802e-07
8.06434e-07
8.05832e-07
7.39023e-07
7.39045e-07
7.39014e-07
7.39035e-07
8.06402e-07
8.05799e-07
7.39001e-07
7.39046e-07
7.38993e-07
7.39038e-07
7.39007e-07
7.3896e-07
7.38999e-07
8.0643e-07
8.05831e-07
7.38983e-07
7.38978e-07
7.38975e-07
8.05801e-07
8.06432e-07
8.05833e-07
7.39022e-07
7.39043e-07
7.39014e-07
7.39035e-07
8.06402e-07
8.05801e-07
7.39002e-07
7.39046e-07
7.38994e-07
7.39038e-07
7.39007e-07
7.38959e-07
7.38998e-07
8.0643e-07
8.0583e-07
7.38983e-07
7.38978e-07
7.38975e-07
8.05801e-07
8.06433e-07
8.05834e-07
7.39023e-07
7.39043e-07
7.39015e-07
7.39034e-07
8.06402e-07
8.058e-07
7.39002e-07
7.39046e-07
7.38994e-07
7.39037e-07
7.39006e-07
7.38957e-07
7.38997e-07
8.0643e-07
8.05828e-07
7.38983e-07
7.38978e-07
7.38974e-07
8.05801e-07
8.06434e-07
8.05835e-07
7.39024e-07
7.39042e-07
7.39016e-07
7.39033e-07
8.06402e-07
8.058e-07
7.39003e-07
7.39045e-07
7.38995e-07
7.39036e-07
7.39006e-07
7.38957e-07
7.38997e-07
8.06428e-07
8.05828e-07
7.38982e-07
7.38978e-07
7.38973e-07
8.05799e-07
8.06435e-07
8.05836e-07
7.39025e-07
7.39041e-07
7.39017e-07
7.39033e-07
8.06401e-07
8.058e-07
7.39004e-07
7.39044e-07
7.38996e-07
7.39036e-07
7.39005e-07
7.38958e-07
7.38996e-07
8.06428e-07
8.05829e-07
7.38981e-07
7.38977e-07
7.38972e-07
8.05796e-07
8.06435e-07
8.05837e-07
7.39025e-07
7.39041e-07
7.39017e-07
7.39033e-07
8.06402e-07
8.05801e-07
7.39004e-07
7.39045e-07
7.38996e-07
7.39037e-07
7.39004e-07
7.38958e-07
7.38997e-07
8.06429e-07
8.0583e-07
7.38981e-07
7.38977e-07
7.38973e-07
8.058e-07
8.06437e-07
8.05836e-07
7.39026e-07
7.39042e-07
7.39018e-07
7.39034e-07
8.06403e-07
8.05802e-07
7.39004e-07
7.39045e-07
7.38996e-07
7.39036e-07
7.39005e-07
7.38959e-07
7.38997e-07
8.06429e-07
8.05828e-07
7.38981e-07
7.38979e-07
7.38974e-07
8.058e-07
8.06436e-07
8.05836e-07
7.39026e-07
7.39042e-07
7.39019e-07
7.39034e-07
8.06404e-07
8.05803e-07
7.39004e-07
7.39045e-07
7.38995e-07
7.39036e-07
7.39006e-07
7.38959e-07
7.38998e-07
8.06428e-07
8.05828e-07
7.38982e-07
7.38978e-07
7.38974e-07
8.05801e-07
8.06436e-07
8.05838e-07
7.39028e-07
7.39042e-07
7.3902e-07
7.39034e-07
8.06404e-07
8.05803e-07
7.39003e-07
7.39045e-07
7.38995e-07
7.39036e-07
7.39006e-07
7.38958e-07
7.38998e-07
8.06428e-07
8.05827e-07
7.38983e-07
7.38978e-07
7.38975e-07
8.05801e-07
8.06439e-07
8.05838e-07
7.39029e-07
7.39042e-07
7.39021e-07
7.39035e-07
8.06404e-07
8.05804e-07
7.39003e-07
7.39044e-07
7.38994e-07
7.39035e-07
7.39006e-07
7.38959e-07
7.38999e-07
8.06427e-07
8.05828e-07
7.38984e-07
7.38978e-07
7.38976e-07
8.05802e-07
8.06438e-07
8.05838e-07
7.39029e-07
7.39043e-07
7.39021e-07
7.39035e-07
8.06406e-07
8.05806e-07
7.39002e-07
7.39043e-07
7.38993e-07
7.39035e-07
7.39007e-07
7.38959e-07
7.38999e-07
8.06428e-07
8.05828e-07
7.38984e-07
7.38978e-07
7.38976e-07
8.05803e-07
8.06437e-07
8.05837e-07
7.39029e-07
7.39044e-07
7.39021e-07
7.39036e-07
8.06407e-07
8.05805e-07
7.39001e-07
7.39043e-07
7.38993e-07
7.39035e-07
7.39007e-07
7.38961e-07
7.38998e-07
8.06428e-07
8.05828e-07
7.38984e-07
7.38977e-07
7.38975e-07
8.05802e-07
8.06437e-07
8.05837e-07
7.39029e-07
7.39044e-07
7.39021e-07
7.39036e-07
8.06406e-07
8.05806e-07
7.39001e-07
7.39044e-07
7.38993e-07
7.39036e-07
7.39006e-07
7.38961e-07
7.38997e-07
8.06428e-07
8.05829e-07
7.38983e-07
7.38978e-07
7.38973e-07
8.05799e-07
8.06437e-07
8.05838e-07
7.39029e-07
7.39044e-07
7.39021e-07
7.39036e-07
8.06407e-07
8.05805e-07
7.39001e-07
7.39044e-07
7.38993e-07
7.39037e-07
7.39004e-07
7.3896e-07
7.38995e-07
8.06428e-07
8.0583e-07
7.3898e-07
7.38977e-07
7.38971e-07
8.05795e-07
8.06438e-07
8.05837e-07
7.39029e-07
7.39045e-07
7.39021e-07
7.39036e-07
8.06407e-07
8.05806e-07
7.39001e-07
7.39045e-07
7.38993e-07
7.39037e-07
7.39003e-07
7.3896e-07
7.38995e-07
8.0643e-07
8.0583e-07
7.38978e-07
7.38977e-07
7.3897e-07
8.05796e-07
8.06437e-07
8.05837e-07
7.39029e-07
7.39045e-07
7.39021e-07
7.39037e-07
8.06408e-07
8.05805e-07
7.39001e-07
7.39045e-07
7.38993e-07
7.39036e-07
7.39003e-07
7.38959e-07
7.38995e-07
8.0643e-07
8.05829e-07
7.38978e-07
7.38977e-07
7.3897e-07
8.05797e-07
8.06437e-07
8.05837e-07
7.39029e-07
7.39045e-07
7.39021e-07
7.39036e-07
8.06407e-07
8.05805e-07
7.39001e-07
7.39044e-07
7.38992e-07
7.39036e-07
7.39004e-07
7.3896e-07
7.38996e-07
8.06428e-07
8.05829e-07
7.38978e-07
7.38977e-07
7.38971e-07
8.05796e-07
8.06437e-07
8.05837e-07
7.39029e-07
7.39044e-07
7.39021e-07
7.39035e-07
8.06406e-07
8.05804e-07
7.39001e-07
7.39044e-07
7.38992e-07
7.39035e-07
7.39004e-07
7.38959e-07
7.38997e-07
8.06428e-07
8.05828e-07
7.38979e-07
7.38977e-07
7.38972e-07
8.058e-07
8.06437e-07
8.05837e-07
7.39029e-07
7.39044e-07
7.39021e-07
7.39035e-07
8.06405e-07
8.05804e-07
7.39e-07
7.39044e-07
7.38992e-07
7.39035e-07
7.39005e-07
7.38959e-07
7.38997e-07
8.06428e-07
8.05828e-07
7.38982e-07
7.38977e-07
7.38973e-07
8.058e-07
8.06437e-07
8.05837e-07
7.39029e-07
7.39043e-07
7.39021e-07
7.39035e-07
8.06405e-07
8.05804e-07
7.39e-07
7.39043e-07
7.38992e-07
7.39035e-07
7.39005e-07
7.38959e-07
7.38996e-07
8.06428e-07
8.05827e-07
7.38981e-07
7.38977e-07
7.38972e-07
8.05797e-07
8.06437e-07
8.05838e-07
7.39029e-07
7.39044e-07
7.39021e-07
7.39035e-07
8.06406e-07
8.05804e-07
7.39e-07
7.39044e-07
7.38992e-07
7.39036e-07
7.39004e-07
7.38959e-07
7.38996e-07
8.06427e-07
8.05828e-07
7.3898e-07
7.38979e-07
7.38972e-07
8.05799e-07
8.06437e-07
8.05838e-07
7.39029e-07
7.39043e-07
7.39021e-07
7.39035e-07
8.06405e-07
8.05803e-07
7.39e-07
7.39044e-07
7.38992e-07
7.39036e-07
7.39005e-07
7.38958e-07
7.38997e-07
8.06428e-07
8.0583e-07
7.3898e-07
7.38978e-07
7.38973e-07
8.05801e-07
8.06438e-07
8.05838e-07
7.3903e-07
7.39043e-07
7.39021e-07
7.39035e-07
8.06405e-07
8.05803e-07
7.39e-07
7.39045e-07
7.38992e-07
7.39036e-07
7.39007e-07
7.38958e-07
7.38998e-07
8.0643e-07
8.05829e-07
7.38981e-07
7.38978e-07
7.38973e-07
8.05801e-07
8.06438e-07
8.05838e-07
7.3903e-07
7.39043e-07
7.39021e-07
7.39034e-07
8.06405e-07
8.05803e-07
7.39e-07
7.39045e-07
7.38992e-07
7.39036e-07
7.39006e-07
7.38958e-07
7.38997e-07
8.06428e-07
8.05827e-07
7.38981e-07
7.38977e-07
7.38972e-07
8.05797e-07
8.06438e-07
8.05837e-07
7.39029e-07
7.39043e-07
7.39021e-07
7.39034e-07
8.06404e-07
8.05804e-07
7.39e-07
7.39044e-07
7.38992e-07
7.39035e-07
7.39005e-07
7.38958e-07
7.38996e-07
8.06427e-07
8.05827e-07
7.3898e-07
7.38977e-07
7.38972e-07
8.05798e-07
8.06437e-07
8.05836e-07
7.39029e-07
7.39043e-07
7.39021e-07
7.39035e-07
8.06405e-07
8.05805e-07
7.39e-07
7.39044e-07
7.38991e-07
7.39036e-07
7.39005e-07
7.38959e-07
7.38997e-07
8.06427e-07
8.05828e-07
7.3898e-07
7.38977e-07
7.38972e-07
8.058e-07
8.06436e-07
8.05836e-07
7.39029e-07
7.39043e-07
7.39021e-07
7.39036e-07
8.06407e-07
8.05804e-07
7.39e-07
7.39044e-07
7.38991e-07
7.39036e-07
7.39006e-07
7.38959e-07
7.38998e-07
8.06427e-07
8.05829e-07
7.38981e-07
7.38978e-07
7.38973e-07
8.05801e-07
8.06437e-07
8.05837e-07
7.39029e-07
7.39044e-07
7.39021e-07
7.39036e-07
8.06406e-07
8.05805e-07
7.39e-07
7.39044e-07
7.38992e-07
7.39036e-07
7.39006e-07
7.38959e-07
7.38998e-07
8.06429e-07
8.05829e-07
7.38981e-07
7.38977e-07
7.38972e-07
8.058e-07
8.06437e-07
8.05839e-07
7.3903e-07
7.39044e-07
7.39022e-07
7.39036e-07
8.06406e-07
8.05805e-07
7.39e-07
7.39045e-07
7.38993e-07
7.39036e-07
7.39006e-07
7.38959e-07
7.38997e-07
8.06429e-07
8.05829e-07
7.3898e-07
7.38977e-07
7.38972e-07
8.05799e-07
8.06439e-07
8.05838e-07
7.3903e-07
7.39044e-07
7.39022e-07
7.39036e-07
8.06406e-07
8.05805e-07
7.39001e-07
7.39044e-07
7.38993e-07
7.39036e-07
7.39005e-07
7.38959e-07
7.38997e-07
8.06429e-07
8.05828e-07
7.3898e-07
7.38977e-07
7.38971e-07
8.05798e-07
8.06438e-07
8.05838e-07
7.3903e-07
7.39044e-07
7.39022e-07
7.39035e-07
8.06406e-07
8.05804e-07
7.39001e-07
7.39044e-07
7.38993e-07
7.39036e-07
7.39005e-07
7.38959e-07
7.38997e-07
8.06427e-07
8.05828e-07
7.3898e-07
7.38978e-07
7.38972e-07
8.05799e-07
8.06438e-07
8.05838e-07
7.3903e-07
7.39044e-07
7.39022e-07
7.39035e-07
8.06406e-07
8.05804e-07
7.39001e-07
7.39044e-07
7.38993e-07
7.39036e-07
7.39006e-07
7.3896e-07
7.38998e-07
8.06428e-07
8.05829e-07
7.38981e-07
7.38978e-07
7.38973e-07
8.058e-07
8.06438e-07
8.05837e-07
7.3903e-07
7.39043e-07
7.39021e-07
7.39035e-07
8.06405e-07
8.05804e-07
7.39001e-07
7.39045e-07
7.38992e-07
7.39036e-07
7.39006e-07
7.3896e-07
7.38997e-07
8.06429e-07
8.05828e-07
7.38981e-07
7.38978e-07
7.38972e-07
8.058e-07
8.06437e-07
8.05838e-07
7.3903e-07
7.39044e-07
7.39021e-07
7.39035e-07
8.06405e-07
8.05804e-07
7.39e-07
7.39044e-07
7.38992e-07
7.39036e-07
7.39006e-07
7.3896e-07
7.38997e-07
8.06428e-07
8.05828e-07
7.38981e-07
7.38978e-07
7.38972e-07
8.05797e-07
8.06438e-07
8.05837e-07
7.39029e-07
7.39044e-07
7.39021e-07
7.39035e-07
8.06406e-07
8.05805e-07
7.39e-07
7.39044e-07
7.38991e-07
7.39035e-07
7.39005e-07
7.3896e-07
7.38998e-07
8.06428e-07
8.05829e-07
7.3898e-07
7.38978e-07
7.38973e-07
8.05801e-07
8.06437e-07
8.05837e-07
7.39029e-07
7.39044e-07
7.39021e-07
7.39035e-07
8.06406e-07
8.05804e-07
7.39e-07
7.39043e-07
7.38991e-07
7.39035e-07
7.39006e-07
7.38959e-07
7.38999e-07
8.06428e-07
8.05828e-07
7.38982e-07
7.38978e-07
7.38974e-07
8.05802e-07
8.06436e-07
8.05837e-07
7.39029e-07
7.39043e-07
7.39021e-07
7.39035e-07
8.06405e-07
8.05804e-07
7.38999e-07
7.39043e-07
7.38991e-07
7.39035e-07
7.39007e-07
7.38959e-07
7.38999e-07
8.06428e-07
8.05827e-07
7.38982e-07
7.38979e-07
7.38974e-07
8.05802e-07
8.06437e-07
8.05836e-07
7.39029e-07
7.39043e-07
7.39021e-07
7.39035e-07
8.06406e-07
8.05804e-07
7.38999e-07
7.39043e-07
7.38991e-07
7.39035e-07
7.39007e-07
7.38959e-07
7.38998e-07
8.06427e-07
8.05829e-07
7.38982e-07
7.3898e-07
7.38973e-07
8.058e-07
8.06436e-07
8.05838e-07
7.39029e-07
7.39044e-07
7.39021e-07
7.39035e-07
8.06405e-07
8.05805e-07
7.39e-07
7.39044e-07
7.38992e-07
7.39036e-07
7.39006e-07
7.38959e-07
7.38997e-07
8.06429e-07
8.0583e-07
7.38981e-07
7.38979e-07
7.38973e-07
8.05798e-07
8.06438e-07
8.05838e-07
7.3903e-07
7.39044e-07
7.39022e-07
7.39035e-07
8.06406e-07
8.05805e-07
7.39001e-07
7.39044e-07
7.38993e-07
7.39036e-07
7.39005e-07
7.38958e-07
7.38997e-07
8.0643e-07
8.05829e-07
7.38981e-07
7.38979e-07
7.38973e-07
8.05799e-07
8.06438e-07
8.05838e-07
7.3903e-07
7.39044e-07
7.39022e-07
7.39035e-07
8.06406e-07
8.05805e-07
7.39001e-07
7.39044e-07
7.38993e-07
7.39036e-07
7.39006e-07
7.38958e-07
7.38998e-07
8.06429e-07
8.05829e-07
7.38981e-07
7.38979e-07
7.38973e-07
8.05801e-07
8.06438e-07
8.05837e-07
7.3903e-07
7.39044e-07
7.39021e-07
7.39035e-07
8.06406e-07
8.05804e-07
7.39001e-07
7.39044e-07
7.38993e-07
7.39036e-07
7.39007e-07
7.38958e-07
7.38999e-07
8.0643e-07
8.05831e-07
7.38982e-07
7.38979e-07
7.38974e-07
8.05802e-07
8.06438e-07
8.05837e-07
7.3903e-07
7.39044e-07
7.39021e-07
7.39035e-07
8.06405e-07
8.05804e-07
7.39001e-07
7.39045e-07
7.38992e-07
7.39036e-07
7.39007e-07
7.38959e-07
7.38999e-07
8.0643e-07
8.05829e-07
7.38982e-07
7.3898e-07
7.38974e-07
8.05802e-07
8.06437e-07
8.05837e-07
7.3903e-07
7.39044e-07
7.39021e-07
7.39035e-07
8.06405e-07
8.05804e-07
7.39001e-07
7.39045e-07
7.38992e-07
7.39035e-07
7.39008e-07
7.38962e-07
7.38998e-07
8.06428e-07
8.0583e-07
7.38982e-07
7.38983e-07
7.38973e-07
8.05802e-07
8.06437e-07
8.05837e-07
7.3903e-07
7.39044e-07
7.3902e-07
7.39034e-07
8.06405e-07
8.05805e-07
7.39001e-07
7.39045e-07
7.38991e-07
7.39035e-07
7.39008e-07
7.38967e-07
7.38997e-07
8.0643e-07
8.0583e-07
7.38982e-07
7.38986e-07
7.38971e-07
8.05801e-07
8.06437e-07
8.05837e-07
7.39031e-07
7.39045e-07
7.39018e-07
7.39033e-07
8.06406e-07
8.05806e-07
7.39002e-07
7.39046e-07
7.38989e-07
7.39033e-07
7.39008e-07
7.38972e-07
7.38996e-07
8.0643e-07
8.0583e-07
7.38982e-07
7.38991e-07
7.3897e-07
8.05801e-07
8.06437e-07
8.05837e-07
7.39031e-07
7.39045e-07
7.39018e-07
7.39033e-07
8.06407e-07
8.05806e-07
7.39001e-07
7.39045e-07
7.38988e-07
7.39032e-07
7.39008e-07
7.38976e-07
7.38995e-07
8.0643e-07
8.0583e-07
7.38982e-07
7.38994e-07
7.3897e-07
8.05802e-07
8.06437e-07
8.05834e-07
7.39031e-07
7.39046e-07
7.39015e-07
7.39031e-07
8.06408e-07
8.05806e-07
7.39001e-07
7.39045e-07
7.38985e-07
7.3903e-07
7.39007e-07
7.38979e-07
7.38991e-07
8.06428e-07
8.0583e-07
7.38982e-07
7.38997e-07
7.38966e-07
8.05798e-07
8.06434e-07
8.05835e-07
7.39028e-07
7.39043e-07
7.39018e-07
7.39032e-07
8.06408e-07
8.05805e-07
7.38998e-07
7.39042e-07
7.38988e-07
7.39032e-07
7.39003e-07
7.38978e-07
7.38992e-07
8.06428e-07
8.0583e-07
7.38978e-07
7.38997e-07
7.38966e-07
8.05795e-07
8.06435e-07
8.05833e-07
7.39037e-07
7.3905e-07
7.39018e-07
7.39031e-07
8.06406e-07
8.05803e-07
7.39007e-07
7.3905e-07
7.38989e-07
7.39031e-07
7.3901e-07
7.38976e-07
7.38992e-07
8.06428e-07
8.05827e-07
7.38985e-07
7.38995e-07
7.38967e-07
8.05795e-07
8.06433e-07
8.0583e-07
7.3904e-07
7.39053e-07
7.39017e-07
7.3903e-07
8.06404e-07
8.05801e-07
7.39011e-07
7.39052e-07
7.38989e-07
7.3903e-07
7.39014e-07
7.38973e-07
7.38991e-07
8.06425e-07
8.05822e-07
7.38988e-07
7.38991e-07
7.38966e-07
8.05792e-07
8.06429e-07
8.05823e-07
7.39041e-07
7.39054e-07
7.3901e-07
7.39021e-07
8.06402e-07
8.05794e-07
7.39013e-07
7.39053e-07
7.38981e-07
7.39023e-07
7.39015e-07
7.38967e-07
7.38984e-07
8.06419e-07
8.05816e-07
7.38989e-07
7.38984e-07
7.38957e-07
8.05783e-07
8.0642e-07
8.0581e-07
7.39038e-07
7.39048e-07
7.38994e-07
7.39003e-07
8.06392e-07
8.05781e-07
7.39008e-07
7.3905e-07
7.38965e-07
7.39006e-07
7.39011e-07
7.3895e-07
7.38966e-07
8.06413e-07
8.05806e-07
7.38984e-07
7.38967e-07
7.38938e-07
8.05773e-07
8.06402e-07
8.05718e-07
7.39025e-07
7.39032e-07
7.38875e-07
7.38882e-07
8.06375e-07
8.05691e-07
7.38995e-07
7.39035e-07
7.38844e-07
7.38883e-07
7.38996e-07
7.38831e-07
7.38847e-07
8.06396e-07
8.05717e-07
7.38968e-07
7.38847e-07
7.38814e-07
8.05675e-07
8.06284e-07
8.00365e-07
7.39003e-07
7.3901e-07
7.34258e-07
7.34264e-07
8.06259e-07
8.00348e-07
7.38972e-07
7.39014e-07
7.34238e-07
7.34254e-07
7.38976e-07
7.34226e-07
7.34225e-07
8.0628e-07
8.00359e-07
7.38942e-07
7.34232e-07
7.34206e-07
8.00297e-07
7.94345e-07
7.29356e-07
7.2936e-07
7.9433e-07
7.29343e-07
7.2935e-07
6.80769e-07
6.80767e-07
6.80759e-07
7.29322e-07
7.94337e-07
7.2931e-07
6.63611e-07
3.29316e-07
5.73629e-07
5.73422e-07
1.06137e-09
8.96987e-08
1.14184e-08
4.37209e-07
1.18079e-09
9.15737e-08
4.3753e-07
4.70531e-08
2.90919e-08
1.75789e-08
1.63423e-08
6.61517e-09
2.14827e-07
4.94556e-09
3.29811e-07
2.10643e-06
4.11335e-06
6.5803e-09
2.68577e-07
5.11471e-09
2.97149e-07
4.49227e-07
4.49314e-07
4.49328e-07
4.56233e-07
4.55953e-07
4.55901e-07
4.55656e-07
1.49042e-09
1.0102e-07
2.49638e-07
9.42932e-08
1.28316e-09
7.98013e-08
2.52806e-07
1.70468e-06
3.37695e-06
1.63999e-09
2.51472e-07
1.24026e-07
1.0032e-07
1.42092e-09
2.54343e-07
1.04102e-07
2.12879e-07
2.22836e-07
3.85537e-08
1.88508e-07
1.95333e-07
1.55643e-08
6.07564e-07
1.16332e-08
8.63681e-07
9.08668e-06
1.29684e-05
1.52641e-08
5.49549e-07
1.10001e-08
7.8071e-07
4.60258e-07
4.60175e-07
4.59922e-07
4.73434e-07
4.73493e-07
4.7322e-07