/*--------------------------------*- C++ -*----------------------------------*\
| =========                 |                                                 |
| \\      /  F ield         | OpenFOAM: The Open Source CFD Toolbox           |
|  \\    /   O peration     | Version:  v1906                                 |
|   \\  /    A nd           | Web:      www.OpenFOAM.com                      |
|    \\/     M anipulation  |                                                 |
\*---------------------------------------------------------------------------*/
FoamFile
{
    version     2.0;
    format      ascii;
    class       volScalarField;
    location    "50";
    object      k;
}
// * * * * * * * * * * * * * * * * * * * * * * * * * * * * * * * * * * * * * //

dimensions      [0 2 -2 0 0 0 0];


internalField   nonuniform List<scalar> 
171728
(
2.03359e-05
4.46851e-06
4.60785e-06
1.44032e-06
2.08417e-05
5.48672e-06
5.57896e-06
2.0499e-06
2.16198e-05
6.98114e-06
7.07942e-06
2.9794e-06
2.23448e-05
8.77827e-06
8.87819e-06
4.31514e-06
2.30725e-05
1.101e-05
1.10604e-05
6.11593e-06
2.38815e-05
1.35838e-05
1.36144e-05
8.59233e-06
2.48905e-05
1.65049e-05
1.65111e-05
1.17546e-05
2.61488e-05
1.96405e-05
1.96477e-05
1.53561e-05
2.75899e-05
2.28927e-05
2.28982e-05
1.95698e-05
2.90985e-05
2.61224e-05
2.61271e-05
2.38988e-05
3.00953e-05
2.85053e-05
2.85066e-05
2.76082e-05
3.08361e-05
3.05651e-05
3.05655e-05
3.0573e-05
3.12997e-05
3.17923e-05
3.17925e-05
3.24007e-05
3.14238e-05
3.20702e-05
3.20704e-05
3.27345e-05
3.14418e-05
3.21034e-05
3.21035e-05
3.27627e-05
3.14445e-05
3.21081e-05
3.21083e-05
3.27683e-05
3.14453e-05
3.21092e-05
3.21095e-05
3.27687e-05
3.14459e-05
3.21098e-05
3.211e-05
3.27693e-05
3.14463e-05
3.21102e-05
3.21105e-05
3.27691e-05
3.14465e-05
3.21105e-05
3.21107e-05
3.27694e-05
3.14465e-05
3.21105e-05
3.21107e-05
3.27694e-05
3.14464e-05
3.21106e-05
3.21108e-05
3.27693e-05
3.14464e-05
3.21105e-05
3.21107e-05
3.27692e-05
3.14464e-05
3.21105e-05
3.21107e-05
3.27694e-05
3.14464e-05
3.21105e-05
3.21108e-05
3.27693e-05
3.14466e-05
3.21105e-05
3.21108e-05
3.27692e-05
3.14466e-05
3.21106e-05
3.21107e-05
3.27694e-05
3.14464e-05
3.21106e-05
3.21108e-05
3.27693e-05
3.14465e-05
3.21107e-05
3.21108e-05
3.27693e-05
3.14467e-05
3.21106e-05
3.21107e-05
3.27694e-05
3.14466e-05
3.21105e-05
3.21107e-05
3.27694e-05
3.14465e-05
3.21105e-05
3.21107e-05
3.27694e-05
3.14466e-05
3.21105e-05
3.21107e-05
3.27694e-05
3.14466e-05
3.21105e-05
3.21108e-05
3.27694e-05
3.14465e-05
3.21106e-05
3.21108e-05
3.27693e-05
3.14466e-05
3.21107e-05
3.21108e-05
3.27692e-05
3.14465e-05
3.21107e-05
3.21108e-05
3.27694e-05
3.14467e-05
3.21107e-05
3.21108e-05
3.27693e-05
3.14466e-05
3.21106e-05
3.21108e-05
3.27694e-05
3.14465e-05
3.21106e-05
3.21107e-05
3.27694e-05
3.14465e-05
3.21106e-05
3.21107e-05
3.27693e-05
3.14464e-05
3.21105e-05
3.21107e-05
3.27694e-05
3.14467e-05
3.21105e-05
3.21107e-05
3.27693e-05
3.14467e-05
3.21106e-05
3.21107e-05
3.27693e-05
3.14466e-05
3.21106e-05
3.21106e-05
3.27691e-05
3.14465e-05
3.21106e-05
3.21107e-05
3.27694e-05
3.14466e-05
3.21107e-05
3.21107e-05
3.27693e-05
3.14465e-05
3.21106e-05
3.21107e-05
3.27693e-05
3.14465e-05
3.21106e-05
3.21107e-05
3.27693e-05
3.14466e-05
3.21107e-05
3.21107e-05
3.27694e-05
3.14465e-05
3.21106e-05
3.21107e-05
3.27694e-05
3.14464e-05
3.21108e-05
3.21107e-05
3.27693e-05
3.14463e-05
3.21107e-05
3.21107e-05
3.27692e-05
3.14465e-05
3.21106e-05
3.21106e-05
3.27691e-05
3.14464e-05
3.21106e-05
3.21106e-05
3.27693e-05
3.14463e-05
3.21106e-05
3.21107e-05
3.27692e-05
3.14463e-05
3.21107e-05
3.21107e-05
3.27691e-05
3.14463e-05
3.21106e-05
3.21107e-05
3.27694e-05
3.14462e-05
3.21106e-05
3.21107e-05
3.27692e-05
3.14463e-05
3.21106e-05
3.21107e-05
3.27691e-05
3.14463e-05
3.21106e-05
3.21107e-05
3.27693e-05
3.14463e-05
3.21106e-05
3.21107e-05
3.27693e-05
3.14463e-05
3.21106e-05
3.21106e-05
3.27693e-05
3.14464e-05
3.21105e-05
3.21106e-05
3.27691e-05
3.14465e-05
3.21106e-05
3.21107e-05
3.27693e-05
3.14465e-05
3.21106e-05
3.21107e-05
3.27693e-05
3.14466e-05
3.21106e-05
3.21107e-05
3.27693e-05
3.14467e-05
3.21106e-05
3.21107e-05
3.27693e-05
3.14466e-05
3.21106e-05
3.21106e-05
3.27692e-05
3.14465e-05
3.21106e-05
3.21108e-05
3.27692e-05
3.14463e-05
3.21106e-05
3.21108e-05
3.27693e-05
3.14462e-05
3.21108e-05
3.21107e-05
3.27693e-05
3.14462e-05
3.21107e-05
3.21107e-05
3.27693e-05
3.14462e-05
3.21106e-05
3.21107e-05
3.27692e-05
3.14464e-05
3.21107e-05
3.21107e-05
3.27694e-05
3.14463e-05
3.21106e-05
3.21107e-05
3.27694e-05
3.14464e-05
3.21107e-05
3.21108e-05
3.27694e-05
3.14466e-05
3.21106e-05
3.21108e-05
3.27693e-05
3.14466e-05
3.21106e-05
3.21107e-05
3.27692e-05
3.14467e-05
3.21106e-05
3.21107e-05
3.27693e-05
3.14467e-05
3.21107e-05
3.21108e-05
3.27694e-05
3.14466e-05
3.21106e-05
3.21108e-05
3.27694e-05
3.14468e-05
3.21107e-05
3.21109e-05
3.27694e-05
3.14467e-05
3.21107e-05
3.21108e-05
3.27693e-05
3.14465e-05
3.21109e-05
3.21109e-05
3.27693e-05
3.14467e-05
3.2111e-05
3.2111e-05
3.27694e-05
3.14468e-05
3.2111e-05
3.21111e-05
3.27693e-05
3.14467e-05
3.21111e-05
3.21111e-05
3.27692e-05
3.14468e-05
3.21111e-05
3.21112e-05
3.27692e-05
3.1447e-05
3.21112e-05
3.21112e-05
3.27693e-05
3.14471e-05
3.21114e-05
3.21114e-05
3.27694e-05
3.14471e-05
3.21116e-05
3.21116e-05
3.27694e-05
3.14472e-05
3.21119e-05
3.21119e-05
3.27696e-05
3.14471e-05
3.21112e-05
3.21113e-05
3.2768e-05
3.14358e-05
3.19702e-05
3.19701e-05
3.26537e-05
1.56864e-06
4.67227e-06
4.2822e-06
1.46744e-06
4.22235e-06
4.33904e-06
2.04517e-05
2.04446e-05
2.04503e-05
2.04493e-05
4.38083e-06
4.42848e-06
1.46543e-06
4.36937e-06
4.48337e-06
1.42522e-06
1.58112e-06
2.14403e-06
4.94468e-06
4.38691e-06
5.59178e-06
5.0113e-06
1.48439e-06
2.0542e-06
4.33572e-06
4.41667e-06
5.02574e-06
5.1e-06
4.82837e-06
5.15484e-06
5.49206e-06
1.48181e-06
2.05787e-06
4.89238e-06
5.25881e-06
5.57247e-06
2.01433e-06
2.18198e-06
3.00244e-06
5.9014e-06
5.34621e-06
6.92643e-06
6.46366e-06
2.09392e-06
2.95614e-06
5.36115e-06
5.44037e-06
6.46489e-06
6.55413e-06
5.80118e-06
6.59042e-06
6.82013e-06
2.0974e-06
2.9683e-06
5.89112e-06
6.68313e-06
6.91489e-06
2.90951e-06
3.06617e-06
4.28287e-06
7.29561e-06
6.86713e-06
8.55028e-06
8.21939e-06
3.02413e-06
4.26112e-06
6.86288e-06
6.94819e-06
8.19105e-06
8.25984e-06
7.16969e-06
8.28666e-06
8.30178e-06
3.03716e-06
4.27014e-06
7.27606e-06
8.39335e-06
8.43315e-06
4.22013e-06
4.37988e-06
6.03976e-06
9.02569e-06
8.71985e-06
1.05745e-05
1.03611e-05
4.35789e-06
6.02088e-06
8.68651e-06
8.75316e-06
1.03331e-05
1.03988e-05
8.74944e-06
1.04155e-05
1.03047e-05
4.36745e-06
6.03865e-06
8.86787e-06
1.04794e-05
1.03761e-05
5.97176e-06
6.18264e-06
8.41484e-06
1.11379e-05
1.09527e-05
1.29539e-05
1.28695e-05
6.16537e-06
8.41456e-06
1.09306e-05
1.09956e-05
1.28478e-05
1.29004e-05
1.08996e-05
1.28961e-05
1.28609e-05
6.18298e-06
8.4312e-06
1.09441e-05
1.29279e-05
1.28804e-05
8.39369e-06
8.60963e-06
1.14534e-05
1.36167e-05
1.35602e-05
1.57642e-05
1.57388e-05
8.60855e-06
1.14674e-05
1.35447e-05
1.35915e-05
1.57351e-05
1.57603e-05
1.35704e-05
1.57785e-05
1.57686e-05
8.62611e-06
1.14737e-05
1.3588e-05
1.57806e-05
1.5781e-05
1.14981e-05
1.17076e-05
1.50251e-05
1.6504e-05
1.64753e-05
1.88196e-05
1.88065e-05
1.17205e-05
1.50355e-05
1.64708e-05
1.64868e-05
1.88083e-05
1.88047e-05
1.65001e-05
1.88145e-05
1.88131e-05
1.17261e-05
1.50406e-05
1.65132e-05
1.88284e-05
1.88171e-05
1.50495e-05
1.53451e-05
1.91339e-05
1.96462e-05
1.9635e-05
2.20876e-05
2.20752e-05
1.53517e-05
1.91186e-05
1.96407e-05
1.96343e-05
2.20848e-05
2.20818e-05
1.96383e-05
2.20832e-05
2.2075e-05
1.53527e-05
1.91295e-05
1.96413e-05
2.20867e-05
2.20795e-05
1.9116e-05
1.95879e-05
2.33476e-05
2.2897e-05
2.28867e-05
2.53443e-05
2.53408e-05
1.95736e-05
2.33461e-05
2.28948e-05
2.28946e-05
2.53447e-05
2.53471e-05
2.28858e-05
2.53453e-05
2.53392e-05
1.95892e-05
2.33607e-05
2.28904e-05
2.53513e-05
2.53423e-05
2.33424e-05
2.39047e-05
2.71855e-05
2.6122e-05
2.61199e-05
2.79884e-05
2.79881e-05
2.39039e-05
2.71857e-05
2.61229e-05
2.61247e-05
2.79896e-05
2.79894e-05
2.61185e-05
2.79904e-05
2.79875e-05
2.39164e-05
2.71878e-05
2.6121e-05
2.79922e-05
2.79888e-05
2.71845e-05
2.76102e-05
3.01615e-05
2.85043e-05
2.85042e-05
3.0071e-05
3.0071e-05
2.76105e-05
3.01616e-05
2.85054e-05
2.8505e-05
3.00713e-05
3.00711e-05
2.85038e-05
3.00722e-05
3.0071e-05
2.76121e-05
3.01621e-05
2.85049e-05
3.00727e-05
3.00713e-05
3.01616e-05
3.05739e-05
3.22518e-05
3.0565e-05
3.05651e-05
3.1607e-05
3.16072e-05
3.05742e-05
3.22517e-05
3.05651e-05
3.05651e-05
3.16068e-05
3.1607e-05
3.0565e-05
3.16073e-05
3.16072e-05
3.05745e-05
3.22519e-05
3.05652e-05
3.16075e-05
3.16071e-05
3.2252e-05
3.24011e-05
3.27131e-05
3.17928e-05
3.1793e-05
3.20433e-05
3.20433e-05
3.2401e-05
3.27126e-05
3.17926e-05
3.17928e-05
3.20431e-05
3.20431e-05
3.1793e-05
3.2043e-05
3.20435e-05
3.24011e-05
3.27127e-05
3.17929e-05
3.20432e-05
3.20434e-05
3.27134e-05
3.27344e-05
3.27556e-05
3.20711e-05
3.20711e-05
3.21012e-05
3.21011e-05
3.27339e-05
3.27549e-05
3.20709e-05
3.20708e-05
3.2101e-05
3.21009e-05
3.20713e-05
3.21005e-05
3.21012e-05
3.2734e-05
3.2755e-05
3.20712e-05
3.21007e-05
3.21011e-05
3.27556e-05
3.27632e-05
3.27633e-05
3.21044e-05
3.21043e-05
3.21084e-05
3.21082e-05
3.27625e-05
3.27626e-05
3.21043e-05
3.21041e-05
3.21081e-05
3.21079e-05
3.21043e-05
3.21076e-05
3.21078e-05
3.27626e-05
3.27627e-05
3.21042e-05
3.21078e-05
3.21077e-05
3.27627e-05
3.27695e-05
3.27652e-05
3.21091e-05
3.21089e-05
3.21099e-05
3.21097e-05
3.27687e-05
3.27643e-05
3.21088e-05
3.21086e-05
3.21097e-05
3.21095e-05
3.21084e-05
3.21091e-05
3.2109e-05
3.27687e-05
3.27645e-05
3.21083e-05
3.21093e-05
3.21089e-05
3.27633e-05
3.27709e-05
3.27656e-05
3.21102e-05
3.211e-05
3.21107e-05
3.21105e-05
3.27701e-05
3.27648e-05
3.21099e-05
3.21097e-05
3.21104e-05
3.21102e-05
3.21093e-05
3.21096e-05
3.21097e-05
3.27702e-05
3.27649e-05
3.21092e-05
3.21099e-05
3.21096e-05
3.27638e-05
3.27713e-05
3.27661e-05
3.2111e-05
3.21108e-05
3.21113e-05
3.21111e-05
3.27705e-05
3.27653e-05
3.21107e-05
3.21105e-05
3.2111e-05
3.21109e-05
3.21101e-05
3.21101e-05
3.21102e-05
3.27705e-05
3.27653e-05
3.211e-05
3.21104e-05
3.21101e-05
3.27638e-05
3.27717e-05
3.27659e-05
3.21116e-05
3.21115e-05
3.21115e-05
3.21114e-05
3.2771e-05
3.27652e-05
3.21114e-05
3.21112e-05
3.21112e-05
3.21111e-05
3.21105e-05
3.21105e-05
3.21103e-05
3.2771e-05
3.27652e-05
3.21104e-05
3.21107e-05
3.21102e-05
3.27642e-05
3.27716e-05
3.27658e-05
3.21117e-05
3.21116e-05
3.21115e-05
3.21114e-05
3.2771e-05
3.27653e-05
3.21114e-05
3.21113e-05
3.21112e-05
3.21111e-05
3.21104e-05
3.21105e-05
3.21103e-05
3.27709e-05
3.27652e-05
3.21104e-05
3.21107e-05
3.21102e-05
3.27642e-05
3.27715e-05
3.27658e-05
3.21117e-05
3.21116e-05
3.21114e-05
3.21114e-05
3.2771e-05
3.27653e-05
3.21114e-05
3.21113e-05
3.21112e-05
3.21111e-05
3.21104e-05
3.21107e-05
3.21102e-05
3.27709e-05
3.27652e-05
3.21104e-05
3.21108e-05
3.21101e-05
3.27642e-05
3.27715e-05
3.27658e-05
3.21116e-05
3.21116e-05
3.21114e-05
3.21114e-05
3.2771e-05
3.27653e-05
3.21113e-05
3.21113e-05
3.21112e-05
3.21111e-05
3.21104e-05
3.21106e-05
3.21102e-05
3.27709e-05
3.27652e-05
3.21103e-05
3.21107e-05
3.21101e-05
3.27641e-05
3.27715e-05
3.27659e-05
3.21116e-05
3.21116e-05
3.21114e-05
3.21114e-05
3.2771e-05
3.27653e-05
3.21114e-05
3.21113e-05
3.21112e-05
3.21111e-05
3.21104e-05
3.21106e-05
3.21102e-05
3.27709e-05
3.27652e-05
3.21103e-05
3.21107e-05
3.21101e-05
3.27643e-05
3.27716e-05
3.27658e-05
3.21116e-05
3.21116e-05
3.21114e-05
3.21114e-05
3.2771e-05
3.27653e-05
3.21114e-05
3.21113e-05
3.21112e-05
3.21111e-05
3.21104e-05
3.21105e-05
3.21102e-05
3.27708e-05
3.27652e-05
3.21103e-05
3.21108e-05
3.21101e-05
3.27642e-05
3.27715e-05
3.27658e-05
3.21116e-05
3.21116e-05
3.21114e-05
3.21114e-05
3.2771e-05
3.27653e-05
3.21114e-05
3.21113e-05
3.21112e-05
3.21111e-05
3.21104e-05
3.21105e-05
3.21103e-05
3.27709e-05
3.27653e-05
3.21103e-05
3.21108e-05
3.21102e-05
3.27642e-05
3.27715e-05
3.27658e-05
3.21116e-05
3.21116e-05
3.21114e-05
3.21114e-05
3.2771e-05
3.27653e-05
3.21114e-05
3.21113e-05
3.21112e-05
3.21111e-05
3.21105e-05
3.21106e-05
3.21103e-05
3.27709e-05
3.27653e-05
3.21104e-05
3.21108e-05
3.21102e-05
3.27643e-05
3.27715e-05
3.27658e-05
3.21116e-05
3.21116e-05
3.21114e-05
3.21114e-05
3.2771e-05
3.27653e-05
3.21114e-05
3.21113e-05
3.21112e-05
3.21111e-05
3.21105e-05
3.21106e-05
3.21103e-05
3.27709e-05
3.27653e-05
3.21104e-05
3.21108e-05
3.21102e-05
3.27643e-05
3.27715e-05
3.27658e-05
3.21115e-05
3.21116e-05
3.21114e-05
3.21114e-05
3.2771e-05
3.27652e-05
3.21114e-05
3.21113e-05
3.21113e-05
3.21111e-05
3.21105e-05
3.21107e-05
3.21103e-05
3.27709e-05
3.27652e-05
3.21104e-05
3.21108e-05
3.21102e-05
3.27643e-05
3.27715e-05
3.27659e-05
3.21116e-05
3.21116e-05
3.21114e-05
3.21114e-05
3.2771e-05
3.27653e-05
3.21115e-05
3.21113e-05
3.21114e-05
3.21111e-05
3.21105e-05
3.21107e-05
3.21103e-05
3.27709e-05
3.27652e-05
3.21104e-05
3.21107e-05
3.21102e-05
3.27643e-05
3.27717e-05
3.27659e-05
3.21116e-05
3.21116e-05
3.21113e-05
3.21114e-05
3.2771e-05
3.27653e-05
3.21116e-05
3.21113e-05
3.21114e-05
3.21111e-05
3.21105e-05
3.21106e-05
3.21103e-05
3.27709e-05
3.27652e-05
3.21104e-05
3.21107e-05
3.21102e-05
3.27643e-05
3.27715e-05
3.27658e-05
3.21115e-05
3.21116e-05
3.21113e-05
3.21114e-05
3.2771e-05
3.27652e-05
3.21115e-05
3.21113e-05
3.21113e-05
3.21111e-05
3.21105e-05
3.21106e-05
3.21103e-05
3.27709e-05
3.27652e-05
3.21104e-05
3.21107e-05
3.21102e-05
3.27643e-05
3.27715e-05
3.27658e-05
3.21115e-05
3.21116e-05
3.21113e-05
3.21115e-05
3.2771e-05
3.27653e-05
3.21115e-05
3.21113e-05
3.21113e-05
3.21111e-05
3.21105e-05
3.21106e-05
3.21103e-05
3.27709e-05
3.27652e-05
3.21104e-05
3.21107e-05
3.21102e-05
3.27643e-05
3.27715e-05
3.27658e-05
3.21115e-05
3.21117e-05
3.21114e-05
3.21115e-05
3.2771e-05
3.27652e-05
3.21115e-05
3.21113e-05
3.21113e-05
3.21111e-05
3.21105e-05
3.21105e-05
3.21103e-05
3.27709e-05
3.27652e-05
3.21104e-05
3.21108e-05
3.21102e-05
3.27643e-05
3.27715e-05
3.27659e-05
3.21116e-05
3.21117e-05
3.21114e-05
3.21115e-05
3.2771e-05
3.27653e-05
3.21115e-05
3.21113e-05
3.21114e-05
3.21111e-05
3.21105e-05
3.21106e-05
3.21102e-05
3.27709e-05
3.27652e-05
3.21104e-05
3.21108e-05
3.21101e-05
3.27642e-05
3.27716e-05
3.27659e-05
3.21116e-05
3.21116e-05
3.21114e-05
3.21115e-05
3.2771e-05
3.27653e-05
3.21115e-05
3.21113e-05
3.21114e-05
3.21111e-05
3.21104e-05
3.21107e-05
3.21102e-05
3.27709e-05
3.27652e-05
3.21103e-05
3.21108e-05
3.21101e-05
3.27641e-05
3.27716e-05
3.27659e-05
3.21115e-05
3.21117e-05
3.21113e-05
3.21115e-05
3.2771e-05
3.27653e-05
3.21116e-05
3.21113e-05
3.21114e-05
3.21111e-05
3.21104e-05
3.21108e-05
3.21103e-05
3.27709e-05
3.27653e-05
3.21103e-05
3.21108e-05
3.21102e-05
3.27643e-05
3.27716e-05
3.27659e-05
3.21115e-05
3.21117e-05
3.21114e-05
3.21115e-05
3.2771e-05
3.27654e-05
3.21116e-05
3.21113e-05
3.21114e-05
3.21111e-05
3.21104e-05
3.21107e-05
3.21103e-05
3.2771e-05
3.27653e-05
3.21104e-05
3.21108e-05
3.21102e-05
3.27642e-05
3.27716e-05
3.27659e-05
3.21115e-05
3.21117e-05
3.21113e-05
3.21115e-05
3.27711e-05
3.27653e-05
3.21115e-05
3.21113e-05
3.21113e-05
3.21112e-05
3.21105e-05
3.21106e-05
3.21103e-05
3.27709e-05
3.27653e-05
3.21104e-05
3.21108e-05
3.21102e-05
3.27643e-05
3.27716e-05
3.27658e-05
3.21115e-05
3.21116e-05
3.21113e-05
3.21114e-05
3.2771e-05
3.27653e-05
3.21115e-05
3.21114e-05
3.21113e-05
3.21112e-05
3.21105e-05
3.21106e-05
3.21103e-05
3.2771e-05
3.27653e-05
3.21104e-05
3.21108e-05
3.21102e-05
3.27643e-05
3.27715e-05
3.27658e-05
3.21115e-05
3.21116e-05
3.21113e-05
3.21114e-05
3.2771e-05
3.27653e-05
3.21115e-05
3.21114e-05
3.21113e-05
3.21112e-05
3.21105e-05
3.21106e-05
3.21103e-05
3.2771e-05
3.27653e-05
3.21104e-05
3.21107e-05
3.21102e-05
3.27643e-05
3.27715e-05
3.27658e-05
3.21115e-05
3.21116e-05
3.21113e-05
3.21114e-05
3.2771e-05
3.27653e-05
3.21115e-05
3.21114e-05
3.21113e-05
3.21111e-05
3.21104e-05
3.21106e-05
3.21102e-05
3.2771e-05
3.27653e-05
3.21104e-05
3.21107e-05
3.21102e-05
3.27643e-05
3.27715e-05
3.27659e-05
3.21115e-05
3.21116e-05
3.21113e-05
3.21114e-05
3.2771e-05
3.27653e-05
3.21115e-05
3.21113e-05
3.21113e-05
3.21111e-05
3.21104e-05
3.21105e-05
3.21102e-05
3.27709e-05
3.27652e-05
3.21104e-05
3.21107e-05
3.21101e-05
3.27642e-05
3.27716e-05
3.27659e-05
3.21115e-05
3.21116e-05
3.21114e-05
3.21114e-05
3.2771e-05
3.27653e-05
3.21115e-05
3.21113e-05
3.21114e-05
3.21111e-05
3.21104e-05
3.21106e-05
3.21102e-05
3.27709e-05
3.27652e-05
3.21103e-05
3.21107e-05
3.21101e-05
3.27642e-05
3.27716e-05
3.27659e-05
3.21116e-05
3.21116e-05
3.21114e-05
3.21114e-05
3.2771e-05
3.27653e-05
3.21116e-05
3.21113e-05
3.21114e-05
3.21111e-05
3.21104e-05
3.21106e-05
3.21102e-05
3.27709e-05
3.27652e-05
3.21102e-05
3.21107e-05
3.21101e-05
3.27641e-05
3.27716e-05
3.27659e-05
3.21116e-05
3.21116e-05
3.21114e-05
3.21114e-05
3.2771e-05
3.27653e-05
3.21116e-05
3.21113e-05
3.21114e-05
3.21111e-05
3.21104e-05
3.21106e-05
3.21102e-05
3.27709e-05
3.27653e-05
3.21103e-05
3.21107e-05
3.21101e-05
3.27643e-05
3.27716e-05
3.27659e-05
3.21116e-05
3.21116e-05
3.21114e-05
3.21114e-05
3.2771e-05
3.27654e-05
3.21116e-05
3.21113e-05
3.21113e-05
3.21111e-05
3.21104e-05
3.21107e-05
3.21103e-05
3.27709e-05
3.27652e-05
3.21103e-05
3.21108e-05
3.21101e-05
3.27642e-05
3.27716e-05
3.27659e-05
3.21116e-05
3.21116e-05
3.21115e-05
3.21114e-05
3.27711e-05
3.27654e-05
3.21115e-05
3.21113e-05
3.21113e-05
3.21111e-05
3.21104e-05
3.21107e-05
3.21103e-05
3.27709e-05
3.27652e-05
3.21103e-05
3.21107e-05
3.21102e-05
3.27643e-05
3.27716e-05
3.2766e-05
3.21117e-05
3.21116e-05
3.21115e-05
3.21114e-05
3.27711e-05
3.27654e-05
3.21115e-05
3.21113e-05
3.21113e-05
3.2111e-05
3.21105e-05
3.21106e-05
3.21103e-05
3.27709e-05
3.27652e-05
3.21104e-05
3.21107e-05
3.21102e-05
3.27643e-05
3.27717e-05
3.2766e-05
3.21117e-05
3.21116e-05
3.21115e-05
3.21115e-05
3.27711e-05
3.27654e-05
3.21114e-05
3.21112e-05
3.21112e-05
3.2111e-05
3.21105e-05
3.21107e-05
3.21103e-05
3.27708e-05
3.27652e-05
3.21104e-05
3.21108e-05
3.21103e-05
3.27643e-05
3.27716e-05
3.27659e-05
3.21117e-05
3.21117e-05
3.21115e-05
3.21115e-05
3.27711e-05
3.27655e-05
3.21114e-05
3.21112e-05
3.21112e-05
3.21111e-05
3.21105e-05
3.21107e-05
3.21103e-05
3.27709e-05
3.27652e-05
3.21104e-05
3.21107e-05
3.21102e-05
3.27643e-05
3.27716e-05
3.27659e-05
3.21117e-05
3.21117e-05
3.21115e-05
3.21115e-05
3.27712e-05
3.27654e-05
3.21114e-05
3.21112e-05
3.21112e-05
3.21111e-05
3.21105e-05
3.21108e-05
3.21102e-05
3.27709e-05
3.27652e-05
3.21104e-05
3.21107e-05
3.21101e-05
3.27643e-05
3.27716e-05
3.2766e-05
3.21117e-05
3.21117e-05
3.21115e-05
3.21115e-05
3.27711e-05
3.27655e-05
3.21114e-05
3.21113e-05
3.21112e-05
3.21111e-05
3.21104e-05
3.21107e-05
3.21101e-05
3.27709e-05
3.27652e-05
3.21103e-05
3.21107e-05
3.211e-05
3.27642e-05
3.27716e-05
3.2766e-05
3.21117e-05
3.21117e-05
3.21115e-05
3.21115e-05
3.27712e-05
3.27655e-05
3.21114e-05
3.21113e-05
3.21112e-05
3.21111e-05
3.21103e-05
3.21106e-05
3.21101e-05
3.27709e-05
3.27653e-05
3.21102e-05
3.21107e-05
3.21099e-05
3.2764e-05
3.27716e-05
3.27659e-05
3.21117e-05
3.21117e-05
3.21115e-05
3.21116e-05
3.27712e-05
3.27655e-05
3.21114e-05
3.21113e-05
3.21112e-05
3.21111e-05
3.21103e-05
3.21106e-05
3.21101e-05
3.2771e-05
3.27652e-05
3.21101e-05
3.21107e-05
3.211e-05
3.27641e-05
3.27716e-05
3.27659e-05
3.21117e-05
3.21117e-05
3.21115e-05
3.21115e-05
3.27712e-05
3.27655e-05
3.21114e-05
3.21113e-05
3.21112e-05
3.21111e-05
3.21103e-05
3.21106e-05
3.21102e-05
3.27709e-05
3.27652e-05
3.21102e-05
3.21107e-05
3.211e-05
3.27641e-05
3.27716e-05
3.27659e-05
3.21117e-05
3.21117e-05
3.21115e-05
3.21115e-05
3.27712e-05
3.27655e-05
3.21114e-05
3.21112e-05
3.21112e-05
3.21111e-05
3.21103e-05
3.21107e-05
3.21102e-05
3.27709e-05
3.27652e-05
3.21102e-05
3.21107e-05
3.211e-05
3.27641e-05
3.27716e-05
3.27659e-05
3.21117e-05
3.21117e-05
3.21115e-05
3.21115e-05
3.27712e-05
3.27654e-05
3.21114e-05
3.21112e-05
3.21112e-05
3.21111e-05
3.21104e-05
3.21106e-05
3.21102e-05
3.27709e-05
3.27652e-05
3.21102e-05
3.21107e-05
3.21101e-05
3.27643e-05
3.27716e-05
3.27659e-05
3.21117e-05
3.21117e-05
3.21115e-05
3.21115e-05
3.27711e-05
3.27654e-05
3.21114e-05
3.21112e-05
3.21112e-05
3.2111e-05
3.21104e-05
3.21106e-05
3.21102e-05
3.27709e-05
3.27652e-05
3.21103e-05
3.21108e-05
3.21101e-05
3.27642e-05
3.27716e-05
3.27659e-05
3.21117e-05
3.21117e-05
3.21115e-05
3.21115e-05
3.27711e-05
3.27654e-05
3.21113e-05
3.21112e-05
3.21112e-05
3.21111e-05
3.21103e-05
3.21106e-05
3.21101e-05
3.27709e-05
3.27652e-05
3.21102e-05
3.21107e-05
3.211e-05
3.27641e-05
3.27716e-05
3.27659e-05
3.21117e-05
3.21117e-05
3.21115e-05
3.21115e-05
3.27711e-05
3.27654e-05
3.21114e-05
3.21113e-05
3.21112e-05
3.21111e-05
3.21103e-05
3.21106e-05
3.21102e-05
3.27709e-05
3.27652e-05
3.21102e-05
3.21107e-05
3.211e-05
3.27642e-05
3.27716e-05
3.2766e-05
3.21117e-05
3.21117e-05
3.21115e-05
3.21115e-05
3.27711e-05
3.27654e-05
3.21114e-05
3.21113e-05
3.21112e-05
3.21111e-05
3.21104e-05
3.21106e-05
3.21103e-05
3.27709e-05
3.27653e-05
3.21102e-05
3.21107e-05
3.21101e-05
3.27642e-05
3.27716e-05
3.2766e-05
3.21117e-05
3.21117e-05
3.21115e-05
3.21115e-05
3.27711e-05
3.27654e-05
3.21114e-05
3.21113e-05
3.21112e-05
3.21111e-05
3.21105e-05
3.21106e-05
3.21102e-05
3.2771e-05
3.27652e-05
3.21103e-05
3.21107e-05
3.21101e-05
3.27642e-05
3.27716e-05
3.27659e-05
3.21117e-05
3.21116e-05
3.21115e-05
3.21115e-05
3.27711e-05
3.27654e-05
3.21113e-05
3.21113e-05
3.21112e-05
3.21111e-05
3.21104e-05
3.21106e-05
3.21102e-05
3.27709e-05
3.27652e-05
3.21102e-05
3.21106e-05
3.211e-05
3.27641e-05
3.27716e-05
3.27659e-05
3.21117e-05
3.21116e-05
3.21115e-05
3.21115e-05
3.27711e-05
3.27654e-05
3.21113e-05
3.21112e-05
3.21112e-05
3.21111e-05
3.21104e-05
3.21106e-05
3.21102e-05
3.27708e-05
3.27651e-05
3.21102e-05
3.21107e-05
3.211e-05
3.27642e-05
3.27716e-05
3.27659e-05
3.21117e-05
3.21117e-05
3.21115e-05
3.21115e-05
3.27711e-05
3.27655e-05
3.21114e-05
3.21113e-05
3.21112e-05
3.21111e-05
3.21104e-05
3.21106e-05
3.21103e-05
3.27708e-05
3.27652e-05
3.21102e-05
3.21107e-05
3.21101e-05
3.27642e-05
3.27716e-05
3.27659e-05
3.21117e-05
3.21117e-05
3.21115e-05
3.21115e-05
3.27712e-05
3.27654e-05
3.21113e-05
3.21113e-05
3.21112e-05
3.21111e-05
3.21105e-05
3.21106e-05
3.21103e-05
3.27709e-05
3.27652e-05
3.21103e-05
3.21107e-05
3.21101e-05
3.27642e-05
3.27716e-05
3.27659e-05
3.21117e-05
3.21117e-05
3.21116e-05
3.21115e-05
3.27711e-05
3.27654e-05
3.21114e-05
3.21113e-05
3.21112e-05
3.21111e-05
3.21104e-05
3.21106e-05
3.21102e-05
3.27709e-05
3.27652e-05
3.21103e-05
3.21107e-05
3.211e-05
3.27642e-05
3.27716e-05
3.2766e-05
3.21117e-05
3.21117e-05
3.21116e-05
3.21115e-05
3.27711e-05
3.27654e-05
3.21114e-05
3.21113e-05
3.21113e-05
3.21111e-05
3.21104e-05
3.21106e-05
3.21102e-05
3.27709e-05
3.27652e-05
3.21102e-05
3.21106e-05
3.211e-05
3.27642e-05
3.27717e-05
3.2766e-05
3.21118e-05
3.21117e-05
3.21116e-05
3.21115e-05
3.27711e-05
3.27654e-05
3.21115e-05
3.21113e-05
3.21113e-05
3.21111e-05
3.21104e-05
3.21106e-05
3.21102e-05
3.27709e-05
3.27652e-05
3.21102e-05
3.21108e-05
3.211e-05
3.27641e-05
3.27717e-05
3.2766e-05
3.21118e-05
3.21117e-05
3.21116e-05
3.21115e-05
3.27711e-05
3.27654e-05
3.21114e-05
3.21113e-05
3.21112e-05
3.21111e-05
3.21104e-05
3.21106e-05
3.21102e-05
3.27708e-05
3.27652e-05
3.21102e-05
3.21108e-05
3.21101e-05
3.27642e-05
3.27716e-05
3.2766e-05
3.21117e-05
3.21117e-05
3.21115e-05
3.21115e-05
3.27711e-05
3.27654e-05
3.21114e-05
3.21113e-05
3.21112e-05
3.21111e-05
3.21104e-05
3.21108e-05
3.21103e-05
3.27709e-05
3.27652e-05
3.21103e-05
3.21107e-05
3.21101e-05
3.27642e-05
3.27716e-05
3.27659e-05
3.21117e-05
3.21117e-05
3.21115e-05
3.21115e-05
3.27711e-05
3.27654e-05
3.21114e-05
3.21113e-05
3.21111e-05
3.21111e-05
3.21104e-05
3.21107e-05
3.21102e-05
3.27709e-05
3.27652e-05
3.21103e-05
3.21107e-05
3.21101e-05
3.27642e-05
3.27716e-05
3.27659e-05
3.21117e-05
3.21117e-05
3.21115e-05
3.21115e-05
3.27711e-05
3.27654e-05
3.21113e-05
3.21113e-05
3.21111e-05
3.21111e-05
3.21104e-05
3.21106e-05
3.21102e-05
3.27709e-05
3.27652e-05
3.21102e-05
3.21107e-05
3.21101e-05
3.27641e-05
3.27716e-05
3.27659e-05
3.21117e-05
3.21117e-05
3.21115e-05
3.21115e-05
3.27711e-05
3.27655e-05
3.21113e-05
3.21112e-05
3.21111e-05
3.2111e-05
3.21104e-05
3.21108e-05
3.21103e-05
3.27709e-05
3.27652e-05
3.21103e-05
3.21107e-05
3.21101e-05
3.27643e-05
3.27716e-05
3.27659e-05
3.21117e-05
3.21117e-05
3.21115e-05
3.21115e-05
3.27712e-05
3.27654e-05
3.21113e-05
3.21112e-05
3.21111e-05
3.2111e-05
3.21105e-05
3.21107e-05
3.21103e-05
3.27709e-05
3.27652e-05
3.21103e-05
3.21108e-05
3.21102e-05
3.27643e-05
3.27716e-05
3.27659e-05
3.21117e-05
3.21117e-05
3.21115e-05
3.21115e-05
3.27711e-05
3.27654e-05
3.21113e-05
3.21112e-05
3.21111e-05
3.2111e-05
3.21105e-05
3.21107e-05
3.21103e-05
3.27709e-05
3.27652e-05
3.21104e-05
3.21108e-05
3.21101e-05
3.27643e-05
3.27716e-05
3.27659e-05
3.21117e-05
3.21117e-05
3.21115e-05
3.21115e-05
3.27711e-05
3.27654e-05
3.21113e-05
3.21112e-05
3.21112e-05
3.21111e-05
3.21105e-05
3.21107e-05
3.21102e-05
3.27709e-05
3.27652e-05
3.21103e-05
3.21108e-05
3.21101e-05
3.27642e-05
3.27716e-05
3.2766e-05
3.21117e-05
3.21117e-05
3.21116e-05
3.21115e-05
3.27711e-05
3.27654e-05
3.21114e-05
3.21113e-05
3.21112e-05
3.21111e-05
3.21104e-05
3.21106e-05
3.21102e-05
3.27709e-05
3.27653e-05
3.21103e-05
3.21108e-05
3.21101e-05
3.27641e-05
3.27717e-05
3.2766e-05
3.21118e-05
3.21117e-05
3.21116e-05
3.21115e-05
3.27711e-05
3.27654e-05
3.21114e-05
3.21113e-05
3.21112e-05
3.21111e-05
3.21104e-05
3.21106e-05
3.21102e-05
3.27709e-05
3.27652e-05
3.21103e-05
3.21108e-05
3.21101e-05
3.27642e-05
3.27716e-05
3.2766e-05
3.21118e-05
3.21117e-05
3.21116e-05
3.21115e-05
3.27711e-05
3.27654e-05
3.21114e-05
3.21113e-05
3.21113e-05
3.21111e-05
3.21104e-05
3.21107e-05
3.21103e-05
3.27709e-05
3.27653e-05
3.21103e-05
3.21108e-05
3.21101e-05
3.27642e-05
3.27716e-05
3.2766e-05
3.21117e-05
3.21117e-05
3.21115e-05
3.21115e-05
3.27711e-05
3.27654e-05
3.21114e-05
3.21113e-05
3.21112e-05
3.21111e-05
3.21105e-05
3.21106e-05
3.21103e-05
3.2771e-05
3.27653e-05
3.21103e-05
3.21108e-05
3.21102e-05
3.27643e-05
3.27716e-05
3.27659e-05
3.21117e-05
3.21117e-05
3.21116e-05
3.21115e-05
3.27711e-05
3.27654e-05
3.21114e-05
3.21113e-05
3.21112e-05
3.21111e-05
3.21105e-05
3.21107e-05
3.21103e-05
3.2771e-05
3.27652e-05
3.21104e-05
3.21109e-05
3.21102e-05
3.27643e-05
3.27716e-05
3.27659e-05
3.21118e-05
3.21117e-05
3.21115e-05
3.21115e-05
3.27711e-05
3.27654e-05
3.21114e-05
3.21113e-05
3.21112e-05
3.21111e-05
3.21105e-05
3.21107e-05
3.21102e-05
3.27709e-05
3.27653e-05
3.21103e-05
3.21108e-05
3.211e-05
3.27643e-05
3.27716e-05
3.27659e-05
3.21118e-05
3.21117e-05
3.21115e-05
3.21114e-05
3.27711e-05
3.27655e-05
3.21114e-05
3.21113e-05
3.21111e-05
3.2111e-05
3.21105e-05
3.21109e-05
3.21102e-05
3.2771e-05
3.27653e-05
3.21103e-05
3.21108e-05
3.211e-05
3.27642e-05
3.27716e-05
3.27659e-05
3.21117e-05
3.21117e-05
3.21114e-05
3.21114e-05
3.27712e-05
3.27655e-05
3.21114e-05
3.21113e-05
3.21111e-05
3.21109e-05
3.21105e-05
3.21109e-05
3.21102e-05
3.27709e-05
3.27652e-05
3.21103e-05
3.2111e-05
3.211e-05
3.27643e-05
3.27716e-05
3.27659e-05
3.21118e-05
3.21117e-05
3.21114e-05
3.21114e-05
3.27712e-05
3.27655e-05
3.21114e-05
3.21113e-05
3.2111e-05
3.21109e-05
3.21105e-05
3.2111e-05
3.21101e-05
3.27709e-05
3.27652e-05
3.21104e-05
3.2111e-05
3.211e-05
3.27643e-05
3.27716e-05
3.27658e-05
3.21118e-05
3.21118e-05
3.21114e-05
3.21114e-05
3.27712e-05
3.27655e-05
3.21114e-05
3.21113e-05
3.2111e-05
3.21109e-05
3.21105e-05
3.2111e-05
3.211e-05
3.27709e-05
3.27652e-05
3.21103e-05
3.21111e-05
3.21099e-05
3.27642e-05
3.27715e-05
3.27659e-05
3.21118e-05
3.21117e-05
3.21115e-05
3.21114e-05
3.27712e-05
3.27655e-05
3.21113e-05
3.21112e-05
3.21111e-05
3.2111e-05
3.21104e-05
3.2111e-05
3.21101e-05
3.27709e-05
3.27653e-05
3.21102e-05
3.2111e-05
3.21099e-05
3.27641e-05
3.27716e-05
3.2766e-05
3.2112e-05
3.2112e-05
3.21116e-05
3.21115e-05
3.27712e-05
3.27655e-05
3.21117e-05
3.21115e-05
3.21113e-05
3.2111e-05
3.21107e-05
3.2111e-05
3.21102e-05
3.27709e-05
3.27653e-05
3.21105e-05
3.2111e-05
3.211e-05
3.27642e-05
3.27717e-05
3.2766e-05
3.21122e-05
3.21121e-05
3.21117e-05
3.21116e-05
3.27712e-05
3.27656e-05
3.21118e-05
3.21116e-05
3.21114e-05
3.21112e-05
3.21108e-05
3.2111e-05
3.21103e-05
3.27709e-05
3.27653e-05
3.21106e-05
3.21111e-05
3.21102e-05
3.27642e-05
3.27717e-05
3.27661e-05
3.21124e-05
3.21123e-05
3.21118e-05
3.21117e-05
3.27713e-05
3.27657e-05
3.21121e-05
3.21118e-05
3.21115e-05
3.21113e-05
3.2111e-05
3.21112e-05
3.21104e-05
3.2771e-05
3.27654e-05
3.21108e-05
3.21112e-05
3.21103e-05
3.27643e-05
3.27718e-05
3.27663e-05
3.21126e-05
3.21125e-05
3.2112e-05
3.21118e-05
3.27714e-05
3.27658e-05
3.21123e-05
3.21121e-05
3.21117e-05
3.21115e-05
3.21112e-05
3.21113e-05
3.21106e-05
3.27711e-05
3.27656e-05
3.21111e-05
3.21113e-05
3.21104e-05
3.27646e-05
3.27719e-05
3.27656e-05
3.21129e-05
3.21128e-05
3.21109e-05
3.21107e-05
3.27715e-05
3.27651e-05
3.21126e-05
3.21124e-05
3.21105e-05
3.21104e-05
3.21115e-05
3.21102e-05
3.21094e-05
3.27712e-05
3.2765e-05
3.21113e-05
3.21103e-05
3.21092e-05
3.27637e-05
3.27706e-05
3.27153e-05
3.21121e-05
3.2112e-05
3.20569e-05
3.20568e-05
3.27702e-05
3.2715e-05
3.21118e-05
3.21116e-05
3.20567e-05
3.20563e-05
3.21106e-05
3.20562e-05
3.20553e-05
3.277e-05
3.27148e-05
3.21104e-05
3.20562e-05
3.20553e-05
3.27128e-05
3.26563e-05
3.19707e-05
3.19706e-05
3.2656e-05
3.19706e-05
3.19701e-05
3.14354e-05
3.14353e-05
3.14349e-05
3.19692e-05
3.26557e-05
3.19692e-05
3.07136e-05
1.49659e-05
2.5963e-05
2.59524e-05
8.00873e-08
4.3374e-06
5.3524e-07
1.97008e-05
7.80014e-08
4.34525e-06
1.97182e-05
1.3013e-06
1.24832e-06
3.26571e-07
4.23735e-07
2.60224e-07
5.93558e-06
2.14152e-07
7.78313e-06
1.6708e-05
2.55942e-05
2.6994e-07
6.90882e-06
2.2473e-07
7.27537e-06
2.03237e-05
2.03333e-05
2.03305e-05
2.06492e-05
2.06424e-05
2.06465e-05
2.0639e-05
9.84573e-08
9.26187e-07
1.15816e-05
4.56697e-06
8.77255e-08
9.08529e-07
1.17295e-05
1.45055e-05
2.24667e-05
9.72517e-08
1.16566e-05
1.46735e-06
4.70155e-06
8.82489e-08
1.18019e-05
1.45415e-06
1.78954e-06
1.921e-06
1.68256e-06
1.8205e-06
1.93029e-06
4.69204e-07
1.16903e-05
3.81786e-07
1.4774e-05
4.33964e-05
5.49813e-05
4.49675e-07
1.0933e-05
3.67372e-07