/*--------------------------------*- C++ -*----------------------------------*\
| =========                 |                                                 |
| \\      /  F ield         | OpenFOAM: The Open Source CFD Toolbox           |
|  \\    /   O peration     | Version:  v1906                                 |
|   \\  /    A nd           | Web:      www.OpenFOAM.com                      |
|    \\/     M anipulation  |                                                 |
\*---------------------------------------------------------------------------*/
FoamFile
{
    version     2.0;
    format      ascii;
    class       volScalarField;
    location    "50";
    object      nut;
}
// * * * * * * * * * * * * * * * * * * * * * * * * * * * * * * * * * * * * * //

dimensions      [0 2 -1 0 0 0 0];


internalField   nonuniform List<scalar> 
171728
(
8.27701e-05
1.9494e-05
1.94324e-05
5.65924e-06
8.49049e-05
2.37574e-05
2.36083e-05
7.88048e-06
8.80871e-05
2.97359e-05
3.00471e-05
1.14188e-05
9.10461e-05
3.70273e-05
3.74796e-05
1.71273e-05
9.41288e-05
4.60786e-05
4.6294e-05
2.47342e-05
9.76298e-05
5.6468e-05
5.65806e-05
3.51261e-05
0.000102062
6.82503e-05
6.82592e-05
4.81294e-05
0.000107624
8.08797e-05
8.09067e-05
6.24053e-05
0.000113969
9.37195e-05
9.37251e-05
7.84591e-05
0.000120672
0.000105489
0.000105507
9.31383e-05
0.000124655
0.000112877
0.000112881
0.000103528
0.000127778
0.000119865
0.000119865
0.000112147
0.000129865
0.000124357
0.000124355
0.000118403
0.000130423
0.000125427
0.000125425
0.000119734
0.000130502
0.000125553
0.000125551
0.000119824
0.000130511
0.000125572
0.00012557
0.000119847
0.000130513
0.000125575
0.000125573
0.000119847
0.000130514
0.000125575
0.000125573
0.000119849
0.000130515
0.000125577
0.000125575
0.000119848
0.000130517
0.000125579
0.000125577
0.00011985
0.000130517
0.000125579
0.000125577
0.00011985
0.000130517
0.00012558
0.000125578
0.00011985
0.000130516
0.000125579
0.000125577
0.000119849
0.000130517
0.000125579
0.000125577
0.00011985
0.000130517
0.000125579
0.000125578
0.000119849
0.000130518
0.000125579
0.000125578
0.000119849
0.000130518
0.00012558
0.000125577
0.00011985
0.000130517
0.000125579
0.000125578
0.000119849
0.000130517
0.00012558
0.000125578
0.000119849
0.000130519
0.00012558
0.000125577
0.00011985
0.000130518
0.000125579
0.000125577
0.00011985
0.000130517
0.000125579
0.000125577
0.00011985
0.000130518
0.000125579
0.000125577
0.00011985
0.000130518
0.000125579
0.000125578
0.00011985
0.000130517
0.000125579
0.000125578
0.000119849
0.000130518
0.00012558
0.000125578
0.000119849
0.000130517
0.00012558
0.000125578
0.00011985
0.000130519
0.00012558
0.000125578
0.000119849
0.000130518
0.000125579
0.000125578
0.00011985
0.000130517
0.000125579
0.000125577
0.00011985
0.000130517
0.000125579
0.000125577
0.000119849
0.000130517
0.000125579
0.000125577
0.00011985
0.000130518
0.000125579
0.000125577
0.000119849
0.000130518
0.00012558
0.000125577
0.000119849
0.000130517
0.00012558
0.000125577
0.000119849
0.000130517
0.00012558
0.000125577
0.00011985
0.000130518
0.00012558
0.000125577
0.000119849
0.000130517
0.00012558
0.000125577
0.00011985
0.000130517
0.00012558
0.000125577
0.000119849
0.000130518
0.00012558
0.000125577
0.00011985
0.000130517
0.00012558
0.000125577
0.00011985
0.000130516
0.000125581
0.000125577
0.000119849
0.000130516
0.00012558
0.000125577
0.000119849
0.000130517
0.00012558
0.000125577
0.000119848
0.000130517
0.00012558
0.000125577
0.000119849
0.000130516
0.00012558
0.000125577
0.000119849
0.000130516
0.00012558
0.000125577
0.000119849
0.000130516
0.00012558
0.000125577
0.00011985
0.000130516
0.000125579
0.000125578
0.000119849
0.000130516
0.00012558
0.000125577
0.000119849
0.000130516
0.00012558
0.000125577
0.00011985
0.000130516
0.00012558
0.000125577
0.000119849
0.000130516
0.000125579
0.000125577
0.000119849
0.000130517
0.000125579
0.000125577
0.000119849
0.000130518
0.000125579
0.000125577
0.00011985
0.000130517
0.00012558
0.000125577
0.000119849
0.000130518
0.00012558
0.000125577
0.000119849
0.000130519
0.00012558
0.000125577
0.000119849
0.000130518
0.00012558
0.000125577
0.000119849
0.000130517
0.00012558
0.000125578
0.000119849
0.000130516
0.00012558
0.000125578
0.00011985
0.000130515
0.000125581
0.000125577
0.000119849
0.000130515
0.00012558
0.000125577
0.000119849
0.000130516
0.00012558
0.000125577
0.000119849
0.000130517
0.00012558
0.000125577
0.00011985
0.000130516
0.00012558
0.000125577
0.00011985
0.000130517
0.00012558
0.000125578
0.000119849
0.000130518
0.00012558
0.000125578
0.000119849
0.000130518
0.000125579
0.000125577
0.000119849
0.000130518
0.000125579
0.000125577
0.00011985
0.000130519
0.00012558
0.000125577
0.00011985
0.000130518
0.00012558
0.000125578
0.000119849
0.000130519
0.00012558
0.000125578
0.00011985
0.000130518
0.00012558
0.000125577
0.000119849
0.000130517
0.00012558
0.000125577
0.000119849
0.000130517
0.00012558
0.000125577
0.00011985
0.000130517
0.00012558
0.000125577
0.000119849
0.000130517
0.000125579
0.000125577
0.000119849
0.000130516
0.000125579
0.000125577
0.000119849
0.000130518
0.00012558
0.000125577
0.00011985
0.000130517
0.000125582
0.000125579
0.000119851
0.000130516
0.000125584
0.000125581
0.000119853
0.000130516
0.000125589
0.000125586
0.000119857
0.000130515
0.000125586
0.000125583
0.000119864
0.000130642
0.000126127
0.000126126
0.000120819
6.285e-06
2.01551e-05
1.86805e-05
5.98214e-06
1.82428e-05
1.89909e-05
8.31656e-05
8.31764e-05
8.32176e-05
8.3177e-05
1.92223e-05
1.84331e-05
5.907e-06
1.88268e-05
1.86484e-05
5.59245e-06
6.34139e-06
8.53247e-06
2.05533e-05
1.8957e-05
2.31828e-05
2.15531e-05
6.0557e-06
8.19145e-06
1.85418e-05
1.90751e-05
2.15492e-05
2.2017e-05
1.93425e-05
2.23942e-05
2.2277e-05
5.98088e-06
8.18753e-06
1.95751e-05
2.22255e-05
2.25348e-05
7.7752e-06
8.6474e-06
1.16552e-05
2.4428e-05
2.29262e-05
2.85504e-05
2.7438e-05
8.301e-06
1.14702e-05
2.2961e-05
2.34332e-05
2.74511e-05
2.79479e-05
2.36364e-05
2.81588e-05
2.81181e-05
8.3041e-06
1.15585e-05
2.39096e-05
2.83612e-05
2.82902e-05
1.11319e-05
1.1903e-05
1.69916e-05
3.00571e-05
2.90953e-05
3.53549e-05
3.46981e-05
1.17374e-05
1.69096e-05
2.9084e-05
2.95439e-05
3.45652e-05
3.48785e-05
2.96758e-05
3.502e-05
3.47692e-05
1.18321e-05
1.69866e-05
2.98561e-05
3.54949e-05
3.51143e-05
1.67212e-05
1.74071e-05
2.44539e-05
3.73938e-05
3.67547e-05
4.40217e-05
4.3433e-05
1.73178e-05
2.43609e-05
3.66015e-05
3.68895e-05
4.33112e-05
4.35862e-05
3.66955e-05
4.36826e-05
4.31477e-05
1.73954e-05
2.44538e-05
3.70447e-05
4.39585e-05
4.34271e-05
2.41212e-05
2.50643e-05
3.44196e-05
4.63839e-05
4.58126e-05
5.38755e-05
5.35542e-05
2.49781e-05
3.44068e-05
4.57183e-05
4.59936e-05
5.34659e-05
5.36919e-05
4.55543e-05
5.36893e-05
5.35001e-05
2.50696e-05
3.44945e-05
4.57409e-05
5.38045e-05
5.35907e-05
3.42968e-05
3.52289e-05
4.69164e-05
5.65791e-05
5.63476e-05
6.52436e-05
6.51365e-05
3.52139e-05
4.69662e-05
5.6285e-05
5.6485e-05
6.51255e-05
6.52319e-05
5.63759e-05
6.53102e-05
6.52576e-05
3.53041e-05
4.70043e-05
5.64592e-05
6.53038e-05
6.53051e-05
4.70787e-05
4.79561e-05
6.15694e-05
6.82351e-05
6.81173e-05
7.75288e-05
7.74931e-05
4.80029e-05
6.16285e-05
6.8103e-05
6.81689e-05
7.74996e-05
7.74844e-05
6.82174e-05
7.75184e-05
7.75166e-05
4.80365e-05
6.16522e-05
6.82689e-05
7.75781e-05
7.75304e-05
6.16891e-05
6.23484e-05
7.75858e-05
8.08812e-05
8.08615e-05
9.05915e-05
9.05539e-05
6.23878e-05
7.75182e-05
8.08841e-05
8.08557e-05
9.0596e-05
9.05734e-05
8.08706e-05
9.05826e-05
9.05501e-05
6.2387e-05
7.7562e-05
8.08782e-05
9.05761e-05
9.05663e-05
7.75079e-05
7.85348e-05
9.1904e-05
9.37297e-05
9.3694e-05
0.000102775
0.000102759
7.84699e-05
9.19001e-05
9.37301e-05
9.37199e-05
0.000102777
0.000102784
9.36881e-05
0.000102778
0.000102752
7.85389e-05
9.19658e-05
9.37058e-05
0.000102799
0.000102766
9.18849e-05
9.31606e-05
0.000102928
0.000105484
0.000105475
0.000111296
0.000111294
9.31579e-05
0.00010293
0.000105489
0.000105494
0.000111303
0.000111299
0.000105469
0.000111307
0.000111292
9.32149e-05
0.000102936
0.00010548
0.000111313
0.0001113
0.000102924
0.000103537
0.000111225
0.000112868
0.000112866
0.000118099
0.000118098
0.00010354
0.000111227
0.000112875
0.000112869
0.000118104
0.000118097
0.000112865
0.000118109
0.000118099
0.000103544
0.000111225
0.000112872
0.000118109
0.000118104
0.000111225
0.000112153
0.000118038
0.000119858
0.000119857
0.000123655
0.000123653
0.000112156
0.00011804
0.000119862
0.000119855
0.000123658
0.000123651
0.000119857
0.000123662
0.000123655
0.000112154
0.000118036
0.000119862
0.00012366
0.000123659
0.000118038
0.000118406
0.000119732
0.000124352
0.00012435
0.000125316
0.000125314
0.000118408
0.000119733
0.000124355
0.000124348
0.000125319
0.000125311
0.000124352
0.000125321
0.000125317
0.000118404
0.000119729
0.000124356
0.000125319
0.000125321
0.000119731
0.000119733
0.000119867
0.000125423
0.000125421
0.000125538
0.000125536
0.000119733
0.000119867
0.000125426
0.000125418
0.000125542
0.000125533
0.000125423
0.000125542
0.000125538
0.000119729
0.000119863
0.000125427
0.00012554
0.000125542
0.000119866
0.000119827
0.000119897
0.000125551
0.000125548
0.000125566
0.000125563
0.000119827
0.000119897
0.000125554
0.000125545
0.000125569
0.00012556
0.00012555
0.00012557
0.000125564
0.000119823
0.000119892
0.000125554
0.000125568
0.000125568
0.000119893
0.000119851
0.000119903
0.000125568
0.000125566
0.00012557
0.000125568
0.000119851
0.000119903
0.000125571
0.000125563
0.000125573
0.000125565
0.000125565
0.000125575
0.000125567
0.000119847
0.000119899
0.00012557
0.000125573
0.000125571
0.000119895
0.000119855
0.000119904
0.00012557
0.000125568
0.000125571
0.000125569
0.000119855
0.000119904
0.000125573
0.000125565
0.000125574
0.000125566
0.000125566
0.000125575
0.000125567
0.000119851
0.0001199
0.00012557
0.000125573
0.000125571
0.000119896
0.000119856
0.000119907
0.000125571
0.000125569
0.000125574
0.000125572
0.000119856
0.000119907
0.000125574
0.000125565
0.000125577
0.000125569
0.000125568
0.000125576
0.00012557
0.000119852
0.000119902
0.000125572
0.000125574
0.000125574
0.000119897
0.000119859
0.000119906
0.000125575
0.000125574
0.000125575
0.000125574
0.000119859
0.000119906
0.000125578
0.00012557
0.000125578
0.00012557
0.00012557
0.000125579
0.00012557
0.000119855
0.000119902
0.000125575
0.000125577
0.000125575
0.000119899
0.000119858
0.000119905
0.000125575
0.000125573
0.000125575
0.000125574
0.000119859
0.000119907
0.000125578
0.00012557
0.000125578
0.00012557
0.00012557
0.000125579
0.00012557
0.000119854
0.000119902
0.000125575
0.000125577
0.000125575
0.000119899
0.000119858
0.000119906
0.000125575
0.000125574
0.000125575
0.000125573
0.000119859
0.000119907
0.000125578
0.00012557
0.000125578
0.00012557
0.00012557
0.00012558
0.00012557
0.000119854
0.000119902
0.000125575
0.000125578
0.000125574
0.000119899
0.000119858
0.000119906
0.000125575
0.000125574
0.000125576
0.000125574
0.000119859
0.000119907
0.000125578
0.00012557
0.000125579
0.00012557
0.00012557
0.000125579
0.00012557
0.000119854
0.000119902
0.000125574
0.000125578
0.000125574
0.000119899
0.000119858
0.000119906
0.000125576
0.000125574
0.000125576
0.000125573
0.000119859
0.000119907
0.000125579
0.00012557
0.000125579
0.00012557
0.00012557
0.000125579
0.00012557
0.000119854
0.000119902
0.000125574
0.000125577
0.000125574
0.000119899
0.000119858
0.000119906
0.000125576
0.000125573
0.000125576
0.000125573
0.000119859
0.000119907
0.000125579
0.00012557
0.000125579
0.00012557
0.00012557
0.000125579
0.00012557
0.000119854
0.000119902
0.000125574
0.000125578
0.000125574
0.000119899
0.000119858
0.000119906
0.000125576
0.000125573
0.000125576
0.000125573
0.000119859
0.000119907
0.000125579
0.00012557
0.000125579
0.00012557
0.00012557
0.000125579
0.00012557
0.000119854
0.000119902
0.000125574
0.000125578
0.000125574
0.000119899
0.000119858
0.000119906
0.000125576
0.000125573
0.000125576
0.000125573
0.000119859
0.000119907
0.000125579
0.000125571
0.000125579
0.000125571
0.000125571
0.00012558
0.000125571
0.000119854
0.000119902
0.000125574
0.000125578
0.000125574
0.000119899
0.000119858
0.000119906
0.000125576
0.000125573
0.000125576
0.000125573
0.000119859
0.000119907
0.000125579
0.000125571
0.000125579
0.00012557
0.000125571
0.000125579
0.000125571
0.000119854
0.000119902
0.000125574
0.000125578
0.000125574
0.000119899
0.000119858
0.000119906
0.000125576
0.000125573
0.000125576
0.000125573
0.000119859
0.000119906
0.000125579
0.00012557
0.000125579
0.00012557
0.000125571
0.00012558
0.000125571
0.000119854
0.000119902
0.000125574
0.000125578
0.000125574
0.000119899
0.000119858
0.000119906
0.000125576
0.000125573
0.000125576
0.000125573
0.000119859
0.000119907
0.000125579
0.00012557
0.00012558
0.00012557
0.000125571
0.00012558
0.000125571
0.000119854
0.000119902
0.000125574
0.000125577
0.000125574
0.000119899
0.000119859
0.000119906
0.000125576
0.000125573
0.000125576
0.000125573
0.000119859
0.000119907
0.00012558
0.00012557
0.000125579
0.00012557
0.000125571
0.000125579
0.000125571
0.000119854
0.000119902
0.000125574
0.000125577
0.000125574
0.000119899
0.000119858
0.000119906
0.000125576
0.000125574
0.000125576
0.000125573
0.000119859
0.000119907
0.000125579
0.00012557
0.000125579
0.00012557
0.000125571
0.000125579
0.000125571
0.000119854
0.000119902
0.000125574
0.000125577
0.000125574
0.000119899
0.000119858
0.000119906
0.000125576
0.000125573
0.000125576
0.000125573
0.000119859
0.000119907
0.000125579
0.000125571
0.000125579
0.00012557
0.000125571
0.000125579
0.000125571
0.000119854
0.000119902
0.000125574
0.000125577
0.000125574
0.000119899
0.000119858
0.000119906
0.000125576
0.000125573
0.000125576
0.000125573
0.000119859
0.000119907
0.000125579
0.00012557
0.000125579
0.00012557
0.000125571
0.000125579
0.00012557
0.000119854
0.000119902
0.000125574
0.000125578
0.000125574
0.000119899
0.000119858
0.000119906
0.000125576
0.000125574
0.000125576
0.000125573
0.000119859
0.000119907
0.00012558
0.00012557
0.00012558
0.00012557
0.00012557
0.000125579
0.00012557
0.000119854
0.000119902
0.000125574
0.000125578
0.000125573
0.000119899
0.000119858
0.000119906
0.000125576
0.000125573
0.000125576
0.000125573
0.000119859
0.000119907
0.00012558
0.00012557
0.00012558
0.00012557
0.00012557
0.00012558
0.00012557
0.000119854
0.000119902
0.000125573
0.000125578
0.000125573
0.000119899
0.000119858
0.000119906
0.000125576
0.000125573
0.000125576
0.000125573
0.000119859
0.000119907
0.00012558
0.000125571
0.00012558
0.000125571
0.00012557
0.00012558
0.00012557
0.000119854
0.000119902
0.000125573
0.000125578
0.000125574
0.000119899
0.000119858
0.000119906
0.000125576
0.000125574
0.000125576
0.000125573
0.000119859
0.000119907
0.00012558
0.000125571
0.000125579
0.000125571
0.00012557
0.00012558
0.00012557
0.000119855
0.000119902
0.000125574
0.000125578
0.000125574
0.000119899
0.000119858
0.000119906
0.000125576
0.000125573
0.000125576
0.000125573
0.000119859
0.000119907
0.000125579
0.000125571
0.000125579
0.000125571
0.000125571
0.00012558
0.000125571
0.000119854
0.000119902
0.000125574
0.000125578
0.000125574
0.000119899
0.000119858
0.000119906
0.000125576
0.000125573
0.000125575
0.000125573
0.000119859
0.000119907
0.000125579
0.000125571
0.000125579
0.000125571
0.000125571
0.000125579
0.000125571
0.000119855
0.000119902
0.000125574
0.000125578
0.000125574
0.000119899
0.000119858
0.000119906
0.000125576
0.000125573
0.000125576
0.000125573
0.000119859
0.000119907
0.000125579
0.000125571
0.000125579
0.000125571
0.00012557
0.000125579
0.00012557
0.000119855
0.000119902
0.000125574
0.000125577
0.000125574
0.000119899
0.000119858
0.000119906
0.000125576
0.000125573
0.000125576
0.000125573
0.000119859
0.000119907
0.000125579
0.000125571
0.000125579
0.00012557
0.00012557
0.000125579
0.00012557
0.000119854
0.000119902
0.000125574
0.000125577
0.000125574
0.000119899
0.000119858
0.000119906
0.000125576
0.000125573
0.000125576
0.000125573
0.000119859
0.000119906
0.000125579
0.00012557
0.000125579
0.00012557
0.00012557
0.000125579
0.00012557
0.000119854
0.000119902
0.000125574
0.000125577
0.000125573
0.000119899
0.000119858
0.000119906
0.000125576
0.000125573
0.000125576
0.000125573
0.000119859
0.000119906
0.000125579
0.00012557
0.000125579
0.00012557
0.00012557
0.00012558
0.00012557
0.000119854
0.000119902
0.000125573
0.000125577
0.000125573
0.000119899
0.000119858
0.000119906
0.000125576
0.000125573
0.000125576
0.000125573
0.000119859
0.000119907
0.00012558
0.00012557
0.00012558
0.00012557
0.00012557
0.00012558
0.00012557
0.000119854
0.000119902
0.000125573
0.000125577
0.000125573
0.000119898
0.000119858
0.000119906
0.000125576
0.000125573
0.000125576
0.000125573
0.000119859
0.000119907
0.00012558
0.000125571
0.000125579
0.00012557
0.00012557
0.00012558
0.00012557
0.000119854
0.000119902
0.000125573
0.000125577
0.000125573
0.000119899
0.000119858
0.000119906
0.000125576
0.000125574
0.000125576
0.000125573
0.000119859
0.000119907
0.000125579
0.00012557
0.000125579
0.00012557
0.00012557
0.000125581
0.00012557
0.000119854
0.000119902
0.000125574
0.000125578
0.000125574
0.000119899
0.000119858
0.000119906
0.000125576
0.000125574
0.000125576
0.000125573
0.000119859
0.000119907
0.000125579
0.00012557
0.000125579
0.00012557
0.00012557
0.00012558
0.00012557
0.000119854
0.000119902
0.000125574
0.000125577
0.000125574
0.000119899
0.000119858
0.000119906
0.000125576
0.000125573
0.000125576
0.000125573
0.000119859
0.000119907
0.000125579
0.00012557
0.000125579
0.00012557
0.00012557
0.00012558
0.00012557
0.000119854
0.000119902
0.000125574
0.000125577
0.000125574
0.000119899
0.000119859
0.000119906
0.000125576
0.000125574
0.000125576
0.000125574
0.000119859
0.000119907
0.000125579
0.00012557
0.000125579
0.00012557
0.000125571
0.00012558
0.000125571
0.000119854
0.000119902
0.000125574
0.000125578
0.000125574
0.000119899
0.000119858
0.000119906
0.000125576
0.000125574
0.000125576
0.000125574
0.000119859
0.000119907
0.000125579
0.00012557
0.000125579
0.00012557
0.000125571
0.00012558
0.000125571
0.000119854
0.000119902
0.000125574
0.000125577
0.000125574
0.000119899
0.000119858
0.000119906
0.000125576
0.000125574
0.000125576
0.000125574
0.000119859
0.000119907
0.000125579
0.00012557
0.000125579
0.00012557
0.00012557
0.000125581
0.00012557
0.000119854
0.000119902
0.000125574
0.000125577
0.000125573
0.000119899
0.000119858
0.000119906
0.000125576
0.000125574
0.000125576
0.000125574
0.000119859
0.000119907
0.000125579
0.00012557
0.000125579
0.00012557
0.00012557
0.00012558
0.000125569
0.000119854
0.000119902
0.000125573
0.000125577
0.000125573
0.000119898
0.000119858
0.000119906
0.000125576
0.000125574
0.000125576
0.000125574
0.000119859
0.000119907
0.000125579
0.000125571
0.000125579
0.000125571
0.000125569
0.00012558
0.000125569
0.000119854
0.000119902
0.000125573
0.000125577
0.000125572
0.000119898
0.000119858
0.000119906
0.000125576
0.000125574
0.000125576
0.000125574
0.000119859
0.000119907
0.000125579
0.000125571
0.000125579
0.00012557
0.00012557
0.00012558
0.00012557
0.000119854
0.000119902
0.000125572
0.000125577
0.000125573
0.000119899
0.000119858
0.000119906
0.000125576
0.000125574
0.000125576
0.000125574
0.00011986
0.000119907
0.000125579
0.00012557
0.000125579
0.00012557
0.00012557
0.00012558
0.00012557
0.000119854
0.000119902
0.000125573
0.000125577
0.000125573
0.000119898
0.000119858
0.000119906
0.000125576
0.000125574
0.000125576
0.000125574
0.000119859
0.000119907
0.000125579
0.00012557
0.000125579
0.00012557
0.00012557
0.00012558
0.00012557
0.000119854
0.000119902
0.000125573
0.000125577
0.000125573
0.000119898
0.000119858
0.000119906
0.000125576
0.000125574
0.000125576
0.000125573
0.000119859
0.000119907
0.000125579
0.00012557
0.000125578
0.00012557
0.00012557
0.00012558
0.00012557
0.000119854
0.000119902
0.000125573
0.000125577
0.000125573
0.000119899
0.000119858
0.000119906
0.000125576
0.000125573
0.000125576
0.000125574
0.000119859
0.000119907
0.000125578
0.00012557
0.000125578
0.00012557
0.00012557
0.00012558
0.00012557
0.000119854
0.000119902
0.000125573
0.000125578
0.000125573
0.000119898
0.000119858
0.000119906
0.000125576
0.000125574
0.000125576
0.000125574
0.000119859
0.000119907
0.000125578
0.00012557
0.000125578
0.00012557
0.00012557
0.00012558
0.00012557
0.000119854
0.000119902
0.000125573
0.000125577
0.000125573
0.000119898
0.000119858
0.000119906
0.000125576
0.000125574
0.000125576
0.000125574
0.000119859
0.000119907
0.000125579
0.00012557
0.000125579
0.00012557
0.00012557
0.00012558
0.00012557
0.000119854
0.000119902
0.000125573
0.000125577
0.000125573
0.000119899
0.000119858
0.000119906
0.000125576
0.000125574
0.000125576
0.000125574
0.000119859
0.000119907
0.000125579
0.000125571
0.000125579
0.000125571
0.00012557
0.00012558
0.00012557
0.000119854
0.000119902
0.000125573
0.000125577
0.000125573
0.000119899
0.000119858
0.000119906
0.000125576
0.000125574
0.000125576
0.000125574
0.000119859
0.000119907
0.000125579
0.000125571
0.000125578
0.00012557
0.00012557
0.00012558
0.00012557
0.000119854
0.000119902
0.000125573
0.000125577
0.000125573
0.000119899
0.000119858
0.000119906
0.000125576
0.000125574
0.000125576
0.000125573
0.000119859
0.000119907
0.000125578
0.00012557
0.000125578
0.00012557
0.00012557
0.000125579
0.00012557
0.000119854
0.000119902
0.000125573
0.000125577
0.000125573
0.000119898
0.000119858
0.000119906
0.000125576
0.000125574
0.000125576
0.000125574
0.000119859
0.000119907
0.000125578
0.00012557
0.000125578
0.00012557
0.00012557
0.000125579
0.00012557
0.000119854
0.000119902
0.000125573
0.000125577
0.000125573
0.000119899
0.000119858
0.000119906
0.000125576
0.000125574
0.000125576
0.000125574
0.000119859
0.000119907
0.000125578
0.00012557
0.000125578
0.00012557
0.00012557
0.00012558
0.00012557
0.000119854
0.000119902
0.000125573
0.000125577
0.000125573
0.000119899
0.000119858
0.000119906
0.000125576
0.000125574
0.000125576
0.000125574
0.000119859
0.000119907
0.000125579
0.00012557
0.000125579
0.00012557
0.00012557
0.00012558
0.00012557
0.000119854
0.000119902
0.000125573
0.000125577
0.000125573
0.000119899
0.000119858
0.000119906
0.000125576
0.000125574
0.000125576
0.000125574
0.000119859
0.000119907
0.000125579
0.00012557
0.000125579
0.00012557
0.00012557
0.00012558
0.00012557
0.000119854
0.000119902
0.000125573
0.000125577
0.000125573
0.000119899
0.000119858
0.000119906
0.000125577
0.000125574
0.000125577
0.000125574
0.000119859
0.000119907
0.000125579
0.00012557
0.000125579
0.00012557
0.00012557
0.00012558
0.00012557
0.000119854
0.000119902
0.000125573
0.000125577
0.000125573
0.000119899
0.000119858
0.000119906
0.000125577
0.000125574
0.000125577
0.000125574
0.000119859
0.000119907
0.000125579
0.00012557
0.000125579
0.00012557
0.00012557
0.00012558
0.00012557
0.000119854
0.000119902
0.000125573
0.000125578
0.000125573
0.000119898
0.000119858
0.000119906
0.000125577
0.000125574
0.000125576
0.000125574
0.000119859
0.000119907
0.000125579
0.00012557
0.000125579
0.00012557
0.00012557
0.00012558
0.00012557
0.000119854
0.000119902
0.000125573
0.000125578
0.000125573
0.000119899
0.000119858
0.000119906
0.000125576
0.000125574
0.000125576
0.000125574
0.000119859
0.000119907
0.000125579
0.000125571
0.000125578
0.000125571
0.00012557
0.000125581
0.00012557
0.000119854
0.000119902
0.000125573
0.000125577
0.000125573
0.000119899
0.000119858
0.000119906
0.000125576
0.000125574
0.000125576
0.000125574
0.000119859
0.000119907
0.000125578
0.000125571
0.000125578
0.00012557
0.00012557
0.00012558
0.00012557
0.000119854
0.000119902
0.000125573
0.000125577
0.000125573
0.000119899
0.000119858
0.000119906
0.000125576
0.000125574
0.000125576
0.000125574
0.000119859
0.000119907
0.000125578
0.00012557
0.000125578
0.00012557
0.00012557
0.00012558
0.00012557
0.000119854
0.000119902
0.000125573
0.000125577
0.000125573
0.000119898
0.000119858
0.000119906
0.000125576
0.000125574
0.000125576
0.000125574
0.000119859
0.000119907
0.000125578
0.00012557
0.000125578
0.00012557
0.00012557
0.000125581
0.00012557
0.000119854
0.000119902
0.000125573
0.000125577
0.000125574
0.000119899
0.000119858
0.000119906
0.000125576
0.000125574
0.000125576
0.000125574
0.000119859
0.000119907
0.000125578
0.00012557
0.000125578
0.00012557
0.000125571
0.00012558
0.000125571
0.000119854
0.000119902
0.000125574
0.000125578
0.000125574
0.000119899
0.000119858
0.000119906
0.000125576
0.000125574
0.000125576
0.000125574
0.000119859
0.000119907
0.000125578
0.00012557
0.000125578
0.00012557
0.000125571
0.00012558
0.00012557
0.000119854
0.000119902
0.000125574
0.000125578
0.000125573
0.000119899
0.000119858
0.000119906
0.000125576
0.000125574
0.000125576
0.000125574
0.000119859
0.000119907
0.000125578
0.00012557
0.000125579
0.00012557
0.00012557
0.00012558
0.00012557
0.000119854
0.000119902
0.000125573
0.000125578
0.000125573
0.000119899
0.000119858
0.000119906
0.000125576
0.000125574
0.000125577
0.000125574
0.000119859
0.000119907
0.000125579
0.000125571
0.000125579
0.00012557
0.00012557
0.00012558
0.00012557
0.000119854
0.000119902
0.000125573
0.000125577
0.000125573
0.000119899
0.000119858
0.000119906
0.000125577
0.000125574
0.000125577
0.000125574
0.000119859
0.000119907
0.000125579
0.00012557
0.000125579
0.00012557
0.00012557
0.000125579
0.00012557
0.000119854
0.000119902
0.000125573
0.000125577
0.000125573
0.000119899
0.000119858
0.000119906
0.000125577
0.000125574
0.000125576
0.000125574
0.000119859
0.000119907
0.000125579
0.00012557
0.000125579
0.00012557
0.00012557
0.00012558
0.000125571
0.000119854
0.000119902
0.000125574
0.000125577
0.000125574
0.000119899
0.000119858
0.000119906
0.000125576
0.000125574
0.000125576
0.000125574
0.000119859
0.000119907
0.000125579
0.00012557
0.000125579
0.00012557
0.000125571
0.00012558
0.000125571
0.000119854
0.000119902
0.000125574
0.000125578
0.000125574
0.000119899
0.000119858
0.000119906
0.000125576
0.000125574
0.000125576
0.000125574
0.000119859
0.000119907
0.000125579
0.00012557
0.000125579
0.00012557
0.000125571
0.00012558
0.000125571
0.000119855
0.000119902
0.000125574
0.000125578
0.000125574
0.000119899
0.000119858
0.000119906
0.000125577
0.000125574
0.000125576
0.000125573
0.000119859
0.000119907
0.000125579
0.00012557
0.000125579
0.00012557
0.000125571
0.00012558
0.00012557
0.000119854
0.000119902
0.000125574
0.000125577
0.000125573
0.000119899
0.000119858
0.000119906
0.000125576
0.000125574
0.000125576
0.000125573
0.000119859
0.000119907
0.000125579
0.00012557
0.000125578
0.00012557
0.00012557
0.00012558
0.00012557
0.000119855
0.000119902
0.000125573
0.000125577
0.000125573
0.000119899
0.000119858
0.000119906
0.000125576
0.000125574
0.000125576
0.000125573
0.000119859
0.000119907
0.000125579
0.00012557
0.000125578
0.00012557
0.00012557
0.00012558
0.00012557
0.000119854
0.000119902
0.000125573
0.000125577
0.000125573
0.000119899
0.000119858
0.000119906
0.000125576
0.000125574
0.000125576
0.000125573
0.000119859
0.000119907
0.000125579
0.00012557
0.000125578
0.00012557
0.000125571
0.000125579
0.00012557
0.000119854
0.000119902
0.000125574
0.000125577
0.000125573
0.000119899
0.000119858
0.000119906
0.000125576
0.000125574
0.000125576
0.000125573
0.000119859
0.000119907
0.000125579
0.00012557
0.000125578
0.00012557
0.00012557
0.000125579
0.00012557
0.000119854
0.000119902
0.000125573
0.000125577
0.000125573
0.000119899
0.000119858
0.000119906
0.000125577
0.000125574
0.000125577
0.000125574
0.000119859
0.000119907
0.000125579
0.00012557
0.000125579
0.00012557
0.00012557
0.000125579
0.00012557
0.000119854
0.000119902
0.000125573
0.000125576
0.000125573
0.000119899
0.000119859
0.000119907
0.000125578
0.000125575
0.000125577
0.000125574
0.000119859
0.000119908
0.00012558
0.000125571
0.00012558
0.000125571
0.000125571
0.000125579
0.000125571
0.000119855
0.000119902
0.000125574
0.000125577
0.000125574
0.0001199
0.000119859
0.000119907
0.000125578
0.000125575
0.000125578
0.000125576
0.00011986
0.000119909
0.000125581
0.000125572
0.000125581
0.000125572
0.000125572
0.000125581
0.000125572
0.000119855
0.000119903
0.000125575
0.000125578
0.000125575
0.0001199
0.00011986
0.000119909
0.00012558
0.000125577
0.00012558
0.000125578
0.000119861
0.00011991
0.000125582
0.000125573
0.000125583
0.000125574
0.000125573
0.000125583
0.000125574
0.000119856
0.000119905
0.000125576
0.00012558
0.000125577
0.000119902
0.000119862
0.000119912
0.000125582
0.00012558
0.000125584
0.000125582
0.000119863
0.000119913
0.000125585
0.000125576
0.000125587
0.000125578
0.000125576
0.000125587
0.000125578
0.000119858
0.000119908
0.000125579
0.000125584
0.000125581
0.000119905
0.000119866
0.000119921
0.000125587
0.000125584
0.000125596
0.000125594
0.000119866
0.000119922
0.000125589
0.000125581
0.000125599
0.00012559
0.000125581
0.000125598
0.000125589
0.000119861
0.000119917
0.000125584
0.000125596
0.000125593
0.000119914
0.000119873
0.000120353
0.000125584
0.000125582
0.000125961
0.000125959
0.000119874
0.000120353
0.000125587
0.000125578
0.000125963
0.000125957
0.000125577
0.000125961
0.000125955
0.000119869
0.00012035
0.000125581
0.00012596
0.000125958
0.000120345
0.000120828
0.000126127
0.000126125
0.000120828
0.000126128
0.000126123
0.000130642
0.000130641
0.000130639
0.000126121
0.000120825
0.000126123
0.000127935
6.12116e-05
0.00010576
0.000105712
5.43879e-07
1.88762e-05
2.25805e-06
7.98957e-05
4.6374e-07
1.85567e-05
7.9978e-05
3.23898e-06
4.82086e-06
5.46015e-07
9.88821e-07
9.21288e-07
1.47598e-05
8.34588e-07
1.65305e-05
1.19274e-05
1.43328e-05
9.96627e-07
1.59949e-05
8.8868e-07
1.60317e-05
8.27523e-05
8.28146e-05
8.27896e-05
8.41128e-05
8.41094e-05
8.41521e-05
8.41365e-05
5.85368e-07
7.64246e-07
4.83578e-05
1.99076e-05
5.39774e-07
9.30915e-07
4.89797e-05
1.11087e-05
1.34523e-05
5.19035e-07
4.86294e-05
1.56242e-06
1.98306e-05
4.93276e-07
4.92868e-05
1.82811e-06
1.35391e-06
1.49043e-06
6.60871e-06
1.58233e-06
1.71678e-06
1.27303e-06
2.02441e-05
1.12768e-06
2.2745e-05
1.86528e-05
2.0979e-05
1.19225e-06
1.95755e-05
1.10423e-06
2.20011e-05
8.49117e-05
8.4947e-05
8.49442e-05
8.73125e-05
8.73818e-05
8.73848e-05
8.73e-05
7.96745e-07
1.23413e-06
5.25498e-05
2.51481e-05
6.51736e-07
1.52879e-06
5.38748e-05
1.71184e-05
1.92244e-05
6.39707e-07
5.28432e-05
2.27734e-06