/*--------------------------------*- C++ -*----------------------------------*\
| =========                 |                                                 |
| \\      /  F ield         | OpenFOAM: The Open Source CFD Toolbox           |
|  \\    /   O peration     | Version:  v1906                                 |
|   \\  /    A nd           | Web:      www.OpenFOAM.com                      |
|    \\/     M anipulation  |                                                 |
\*---------------------------------------------------------------------------*/
FoamFile
{
    version     2.0;
    format      ascii;
    class       volScalarField;
    location    "50";
    object      p;
}
// * * * * * * * * * * * * * * * * * * * * * * * * * * * * * * * * * * * * * //

dimensions      [0 2 -2 0 0 0 0];


internalField   nonuniform List<scalar> 
171728
(
0.00375784
0.00375775
0.00375784
0.00376007
0.0037192
0.00371896
0.00371896
0.00372198
0.00368301
0.00368244
0.00368256
0.00368467
0.00363693
0.00363677
0.0036367
0.00363938
0.00358921
0.00358884
0.00358886
0.00359154
0.00354072
0.00354044
0.00354052
0.00354315
0.00349279
0.00349266
0.00349269
0.00349536
0.00344619
0.00344614
0.00344613
0.00344879
0.00340066
0.00340065
0.00340065
0.00340335
0.00335489
0.00335493
0.00335493
0.00335781
0.00330835
0.00330805
0.00330805
0.00331081
0.00326436
0.00326405
0.00326405
0.00326663
0.00322332
0.00322319
0.00322319
0.0032256
0.00318364
0.00318359
0.00318359
0.00318592
0.0031443
0.00314426
0.00314426
0.00314659
0.003105
0.00310496
0.00310496
0.00310729
0.0030657
0.00306566
0.00306566
0.00306799
0.0030264
0.00302636
0.00302636
0.00302869
0.00298709
0.00298705
0.00298705
0.00298938
0.00294779
0.00294775
0.00294775
0.00295008
0.00290848
0.00290844
0.00290844
0.00291077
0.00286917
0.00286913
0.00286913
0.00287146
0.00282987
0.00282983
0.00282983
0.00283215
0.00279056
0.00279052
0.00279052
0.00279285
0.00275125
0.00275121
0.00275121
0.00275354
0.00271194
0.0027119
0.0027119
0.00271423
0.00267263
0.00267259
0.00267258
0.00267491
0.00263331
0.00263327
0.00263327
0.0026356
0.002594
0.00259396
0.00259396
0.00259629
0.00255469
0.00255464
0.00255464
0.00255697
0.00251537
0.00251533
0.00251533
0.00251766
0.00247606
0.00247602
0.00247602
0.00247835
0.00243675
0.00243671
0.00243671
0.00243904
0.00239744
0.0023974
0.0023974
0.00239973
0.00235814
0.0023581
0.0023581
0.00236042
0.00231883
0.00231879
0.00231879
0.00232112
0.00227952
0.00227948
0.00227948
0.00228181
0.00224021
0.00224017
0.00224017
0.0022425
0.0022009
0.00220086
0.00220086
0.00220319
0.00216159
0.00216155
0.00216155
0.00216388
0.00212228
0.00212224
0.00212224
0.00212457
0.00208297
0.00208293
0.00208293
0.00208526
0.00204366
0.00204362
0.00204362
0.00204595
0.00200435
0.00200431
0.00200431
0.00200664
0.00196504
0.001965
0.001965
0.00196733
0.00192573
0.00192569
0.00192569
0.00192801
0.00188641
0.00188637
0.00188637
0.0018887
0.00184709
0.00184705
0.00184705
0.00184938
0.00180777
0.00180773
0.00180773
0.00181006
0.00176846
0.00176842
0.00176842
0.00177074
0.00172914
0.0017291
0.0017291
0.00173143
0.00168982
0.00168978
0.00168978
0.00169211
0.0016505
0.00165046
0.00165046
0.00165279
0.00161118
0.00161114
0.00161114
0.00161347
0.00157186
0.00157182
0.00157182
0.00157415
0.00153254
0.0015325
0.0015325
0.00153483
0.00149322
0.00149318
0.00149318
0.00149551
0.0014539
0.00145386
0.00145386
0.00145619
0.00141458
0.00141454
0.00141454
0.00141687
0.00137526
0.00137522
0.00137522
0.00137755
0.00133594
0.0013359
0.0013359
0.00133823
0.00129662
0.00129658
0.00129658
0.00129891
0.0012573
0.00125726
0.00125726
0.00125959
0.00121798
0.00121794
0.00121794
0.00122027
0.00117866
0.00117862
0.00117862
0.00118094
0.00113934
0.0011393
0.0011393
0.00114162
0.00110002
0.00109998
0.00109998
0.00110231
0.0010607
0.00106066
0.00106066
0.00106299
0.00102139
0.00102135
0.00102135
0.00102368
0.000982076
0.000982036
0.000982036
0.000984363
0.000942766
0.000942725
0.000942726
0.000945054
0.000903455
0.000903415
0.000903415
0.000905743
0.000864144
0.000864104
0.000864104
0.000866432
0.000824832
0.000824792
0.000824792
0.00082712
0.00078552
0.000785479
0.000785479
0.000787807
0.000746206
0.000746165
0.000746165
0.000748493
0.000706893
0.000706852
0.000706852
0.00070918
0.000667581
0.00066754
0.00066754
0.000669868
0.00062827
0.00062823
0.00062823
0.000630557
0.000588958
0.000588918
0.000588918
0.000591246
0.000549647
0.000549606
0.000549606
0.000551934
0.000510334
0.000510294
0.000510294
0.000512622
0.00047102
0.00047098
0.00047098
0.000473308
0.000431705
0.000431664
0.000431664
0.000433992
0.000392387
0.000392345
0.000392345
0.000394672
0.00035307
0.000353028
0.000353028
0.000355355
0.000313755
0.000313717
0.000313717
0.000316044
0.000274441
0.0002744
0.0002744
0.000276722
0.000235124
0.000235084
0.000235084
0.000237406
0.000195811
0.000195772
0.000195772
0.000198088
0.000156486
0.000156449
0.000156449
0.000158755
0.000117154
0.000117125
0.000117124
0.000119412
7.78259e-05
7.77856e-05
7.77841e-05
8.00439e-05
3.93124e-05
3.87482e-05
3.8745e-05
4.0819e-05
7.04188e-06
7.06314e-06
7.06209e-06
6.91675e-06
0.00376646
0.00376598
0.00376595
0.00376622
0.00376629
0.00376576
0.00376757
0.0037675
0.00376745
0.00376749
0.0037659
0.00376595
0.00376605
0.00376587
0.00376595
0.00376627
0.00375992
0.00372572
0.00375769
0.0037578
0.00372721
0.00372718
0.0037599
0.00372562
0.00375848
0.0037578
0.00372727
0.00372755
0.0037578
0.00372711
0.0037273
0.00375997
0.0037256
0.0037578
0.00372712
0.00372726
0.00372579
0.00372193
0.00368992
0.00371885
0.0037189
0.00369304
0.0036927
0.00372193
0.00368991
0.00371886
0.00371905
0.00369302
0.00369308
0.00371891
0.00369313
0.00369315
0.00372189
0.00368996
0.00371897
0.00369311
0.00369304
0.00368997
0.00368462
0.00364539
0.00368258
0.00368249
0.00364832
0.00364838
0.00368462
0.00364531
0.00368261
0.00368263
0.00364843
0.00364841
0.00368264
0.00364851
0.00364838
0.00368463
0.00364538
0.00368274
0.00364844
0.00364854
0.00364537
0.00363939
0.00359783
0.00363674
0.00363652
0.00360105
0.00360087
0.0036394
0.00359782
0.00363662
0.00363666
0.00360093
0.00360096
0.00363668
0.00360096
0.00360075
0.0036394
0.00359783
0.00363662
0.00360089
0.0036009
0.00359776
0.00359164
0.00354936
0.00358902
0.0035888
0.00355267
0.0035525
0.00359163
0.00354936
0.00358884
0.00358881
0.0035525
0.0035525
0.00358885
0.00355247
0.00355232
0.00359163
0.00354935
0.00358867
0.00355242
0.00355242
0.00354931
0.00354316
0.00350132
0.00354043
0.00354047
0.00350455
0.00350457
0.00354315
0.00350136
0.00354047
0.00354045
0.00350451
0.00350456
0.00354034
0.00350452
0.00350451
0.00354315
0.00350136
0.00354027
0.00350449
0.00350453
0.00350145
0.00349524
0.0034547
0.00349258
0.00349266
0.00345759
0.00345761
0.00349527
0.00345468
0.00349263
0.00349266
0.00345763
0.00345762
0.00349266
0.00345766
0.00345765
0.00349528
0.00345469
0.00349263
0.0034576
0.00345764
0.00345472
0.00344879
0.00340924
0.00344612
0.00344612
0.00341197
0.00341199
0.00344877
0.00340922
0.00344613
0.00344612
0.00341199
0.00341198
0.00344615
0.00341198
0.00341198
0.00344877
0.00340923
0.00344615
0.00341199
0.00341198
0.00340922
0.00340337
0.00336387
0.00340065
0.00340066
0.00336659
0.00336658
0.00340335
0.00336386
0.00340066
0.00340066
0.00336659
0.00336658
0.00340066
0.00336658
0.00336658
0.00340336
0.00336386
0.00340065
0.00336658
0.00336658
0.00336386
0.00335782
0.00331694
0.00335493
0.00335493
0.00331963
0.00331963
0.00335781
0.00331694
0.00335493
0.00335493
0.00331963
0.00331963
0.00335493
0.00331963
0.00331963
0.00335782
0.00331694
0.00335493
0.00331963
0.00331962
0.00331693
0.00331082
0.00327224
0.00330805
0.00330805
0.00327468
0.00327468
0.00331081
0.00327224
0.00330805
0.00330805
0.00327468
0.00327468
0.00330805
0.00327468
0.00327468
0.00331082
0.00327224
0.00330805
0.00327468
0.00327468
0.00327224
0.00326663
0.00323087
0.00326405
0.00326405
0.00323322
0.00323322
0.00326663
0.00323087
0.00326405
0.00326405
0.00323322
0.00323322
0.00326405
0.00323322
0.00323322
0.00326663
0.00323087
0.00326405
0.00323322
0.00323322
0.00323087
0.0032256
0.0031911
0.00322319
0.00322319
0.00319344
0.00319344
0.0032256
0.0031911
0.00322319
0.00322319
0.00319344
0.00319344
0.00322319
0.00319344
0.00319344
0.0032256
0.0031911
0.00322319
0.00319344
0.00319344
0.0031911
0.00318592
0.00315176
0.00318359
0.00318359
0.00315409
0.00315409
0.00318592
0.00315176
0.00318359
0.00318359
0.00315409
0.00315409
0.00318359
0.00315409
0.00315409
0.00318592
0.00315176
0.00318359
0.00315409
0.00315409
0.00315176
0.00314659
0.00311246
0.00314426
0.00314426
0.00311479
0.00311479
0.00314659
0.00311246
0.00314426
0.00314426
0.00311479
0.00311479
0.00314426
0.00311479
0.00311479
0.00314659
0.00311246
0.00314426
0.00311479
0.00311479
0.00311246
0.00310729
0.00307316
0.00310496
0.00310496
0.00307549
0.00307549
0.00310729
0.00307316
0.00310496
0.00310496
0.00307549
0.00307549
0.00310496
0.00307549
0.00307549
0.00310729
0.00307316
0.00310496
0.00307549
0.00307549
0.00307316
0.00306799
0.00303386
0.00306566
0.00306566
0.00303618
0.00303618
0.00306799
0.00303386
0.00306566
0.00306566
0.00303618
0.00303618
0.00306566
0.00303618
0.00303618
0.00306799
0.00303386
0.00306566
0.00303618
0.00303618
0.00303386
0.00302869
0.00299455
0.00302636
0.00302636
0.00299688
0.00299688
0.00302869
0.00299455
0.00302636
0.00302636
0.00299688
0.00299688
0.00302636
0.00299688
0.00299688
0.00302869
0.00299455
0.00302636
0.00299688
0.00299688
0.00299455
0.00298938
0.00295525
0.00298705
0.00298705
0.00295757
0.00295757
0.00298938
0.00295525
0.00298705
0.00298705
0.00295757
0.00295757
0.00298705
0.00295757
0.00295757
0.00298938
0.00295525
0.00298705
0.00295757
0.00295757
0.00295525
0.00295007
0.00291594
0.00294775
0.00294775
0.00291827
0.00291827
0.00295007
0.00291594
0.00294775
0.00294775
0.00291827
0.00291827
0.00294775
0.00291827
0.00291827
0.00295008
0.00291594
0.00294775
0.00291827
0.00291827
0.00291594
0.00291077
0.00287663
0.00290844
0.00290844
0.00287896
0.00287896
0.00291077
0.00287663
0.00290844
0.00290844
0.00287896
0.00287896
0.00290844
0.00287896
0.00287896
0.00291077
0.00287663
0.00290844
0.00287896
0.00287896
0.00287663
0.00287146
0.00283733
0.00286913
0.00286913
0.00283965
0.00283965
0.00287146
0.00283733
0.00286913
0.00286913
0.00283965
0.00283965
0.00286913
0.00283965
0.00283965
0.00287146
0.00283733
0.00286913
0.00283965
0.00283965
0.00283733
0.00283215
0.00279802
0.00282983
0.00282983
0.00280035
0.00280034
0.00283215
0.00279802
0.00282983
0.00282983
0.00280035
0.00280035
0.00282983
0.00280034
0.00280035
0.00283215
0.00279802
0.00282983
0.00280035
0.00280035
0.00279802
0.00279285
0.00275871
0.00279052
0.00279052
0.00276104
0.00276104
0.00279284
0.00275871
0.00279052
0.00279052
0.00276104
0.00276104
0.00279052
0.00276104
0.00276104
0.00279285
0.00275871
0.00279052
0.00276104
0.00276104
0.00275871
0.00275354
0.0027194
0.00275121
0.00275121
0.00272173
0.00272173
0.00275354
0.0027194
0.00275121
0.00275121
0.00272173
0.00272173
0.00275121
0.00272173
0.00272173
0.00275354
0.0027194
0.00275121
0.00272173
0.00272173
0.0027194
0.00271423
0.00268009
0.0027119
0.0027119
0.00268241
0.00268241
0.00271423
0.00268009
0.0027119
0.0027119
0.00268241
0.00268241
0.0027119
0.00268241
0.00268241
0.00271423
0.00268009
0.0027119
0.00268241
0.00268241
0.00268009
0.00267491
0.00264077
0.00267259
0.00267259
0.0026431
0.0026431
0.00267491
0.00264077
0.00267258
0.00267258
0.0026431
0.0026431
0.00267259
0.0026431
0.0026431
0.00267491
0.00264077
0.00267258
0.0026431
0.0026431
0.00264077
0.0026356
0.00260146
0.00263327
0.00263327
0.00260379
0.00260379
0.0026356
0.00260146
0.00263327
0.00263327
0.00260379
0.00260379
0.00263327
0.00260379
0.00260379
0.0026356
0.00260146
0.00263327
0.00260379
0.00260379
0.00260146
0.00259629
0.00256215
0.00259396
0.00259396
0.00256447
0.00256447
0.00259629
0.00256215
0.00259396
0.00259396
0.00256447
0.00256447
0.00259396
0.00256447
0.00256447
0.00259629
0.00256215
0.00259396
0.00256447
0.00256447
0.00256215
0.00255697
0.00252283
0.00255465
0.00255464
0.00252516
0.00252516
0.00255697
0.00252283
0.00255464
0.00255464
0.00252516
0.00252516
0.00255465
0.00252516
0.00252516
0.00255697
0.00252283
0.00255464
0.00252516
0.00252516
0.00252283
0.00251766
0.00248352
0.00251533
0.00251533
0.00248585
0.00248585
0.00251766
0.00248352
0.00251533
0.00251533
0.00248585
0.00248585
0.00251533
0.00248585
0.00248585
0.00251766
0.00248352
0.00251533
0.00248585
0.00248585
0.00248352
0.00247835
0.00244421
0.00247602
0.00247602
0.00244654
0.00244654
0.00247835
0.00244421
0.00247602
0.00247602
0.00244654
0.00244654
0.00247602
0.00244654
0.00244654
0.00247835
0.00244421
0.00247602
0.00244654
0.00244654
0.00244421
0.00243904
0.0024049
0.00243671
0.00243671
0.00240723
0.00240723
0.00243904
0.0024049
0.00243671
0.00243671
0.00240723
0.00240723
0.00243671
0.00240723
0.00240723
0.00243904
0.0024049
0.00243671
0.00240723
0.00240723
0.0024049
0.00239973
0.0023656
0.0023974
0.0023974
0.00236792
0.00236792
0.00239973
0.0023656
0.0023974
0.0023974
0.00236792
0.00236792
0.0023974
0.00236792
0.00236792
0.00239973
0.0023656
0.0023974
0.00236792
0.00236792
0.0023656
0.00236042
0.00232629
0.0023581
0.0023581
0.00232861
0.00232861
0.00236042
0.00232629
0.0023581
0.0023581
0.00232861
0.00232861
0.0023581
0.00232861
0.00232861
0.00236042
0.00232629
0.0023581
0.00232861
0.00232861
0.00232629
0.00232112
0.00228698
0.00231879
0.00231879
0.00228931
0.00228931
0.00232111
0.00228698
0.00231879
0.00231879
0.00228931
0.00228931
0.00231879
0.00228931
0.00228931
0.00232112
0.00228698
0.00231879
0.00228931
0.00228931
0.00228698
0.00228181
0.00224767
0.00227948
0.00227948
0.00225
0.00225
0.00228181
0.00224767
0.00227948
0.00227948
0.00225
0.00225
0.00227948
0.00225
0.00225
0.00228181
0.00224767
0.00227948
0.00225
0.00225
0.00224767
0.0022425
0.00220836
0.00224017
0.00224017
0.00221069
0.00221069
0.0022425
0.00220836
0.00224017
0.00224017
0.00221069
0.00221069
0.00224017
0.00221069
0.00221069
0.0022425
0.00220836
0.00224017
0.00221069
0.00221069
0.00220836
0.00220319
0.00216905
0.00220086
0.00220086
0.00217138
0.00217138
0.00220319
0.00216905
0.00220086
0.00220086
0.00217138
0.00217138
0.00220086
0.00217138
0.00217138
0.00220319
0.00216905
0.00220086
0.00217138
0.00217138
0.00216905
0.00216388
0.00212974
0.00216155
0.00216155
0.00213207
0.00213207
0.00216388
0.00212974
0.00216155
0.00216155
0.00213207
0.00213207
0.00216155
0.00213207
0.00213207
0.00216388
0.00212974
0.00216155
0.00213207
0.00213207
0.00212974
0.00212457
0.00209043
0.00212224
0.00212224
0.00209276
0.00209276
0.00212457
0.00209043
0.00212224
0.00212224
0.00209276
0.00209276
0.00212224
0.00209276
0.00209276
0.00212457
0.00209043
0.00212224
0.00209276
0.00209276
0.00209043
0.00208526
0.00205112
0.00208293
0.00208293
0.00205345
0.00205345
0.00208526
0.00205112
0.00208293
0.00208293
0.00205345
0.00205345
0.00208293
0.00205345
0.00205345
0.00208526
0.00205112
0.00208293
0.00205345
0.00205345
0.00205112
0.00204595
0.00201181
0.00204362
0.00204362
0.00201414
0.00201414
0.00204595
0.00201181
0.00204362
0.00204362
0.00201414
0.00201414
0.00204362
0.00201414
0.00201414
0.00204595
0.00201181
0.00204362
0.00201414
0.00201414
0.00201181
0.00200664
0.0019725
0.00200431
0.00200431
0.00197483
0.00197483
0.00200664
0.0019725
0.00200431
0.00200431
0.00197483
0.00197483
0.00200431
0.00197483
0.00197483
0.00200664
0.0019725
0.00200431
0.00197483
0.00197483
0.0019725
0.00196733
0.00193319
0.001965
0.001965
0.00193551
0.00193551
0.00196733
0.00193319
0.001965
0.001965
0.00193551
0.00193551
0.001965
0.00193551
0.00193551
0.00196733
0.00193319
0.001965
0.00193551
0.00193551
0.00193319
0.00192801
0.00189387
0.00192569
0.00192569
0.0018962
0.0018962
0.00192801
0.00189387
0.00192569
0.00192569
0.0018962
0.0018962
0.00192569
0.0018962
0.0018962
0.00192801
0.00189387
0.00192569
0.0018962
0.0018962
0.00189387
0.0018887
0.00185455
0.00188637
0.00188637
0.00185688
0.00185688
0.0018887
0.00185455
0.00188637
0.00188637
0.00185688
0.00185688
0.00188637
0.00185688
0.00185688
0.0018887
0.00185456
0.00188637
0.00185688
0.00185688
0.00185456
0.00184938
0.00181524
0.00184705
0.00184705
0.00181756
0.00181756
0.00184938
0.00181524
0.00184705
0.00184705
0.00181756
0.00181756
0.00184705
0.00181756
0.00181756
0.00184938
0.00181524
0.00184705
0.00181756
0.00181756
0.00181524
0.00181006
0.00177592
0.00180773
0.00180773
0.00177825
0.00177825
0.00181006
0.00177592
0.00180773
0.00180773
0.00177825
0.00177825
0.00180773
0.00177825
0.00177825
0.00181006
0.00177592
0.00180773
0.00177825
0.00177825
0.00177592
0.00177074
0.0017366
0.00176842
0.00176842
0.00173893
0.00173893
0.00177074
0.0017366
0.00176842
0.00176842
0.00173893
0.00173893
0.00176842
0.00173893
0.00173893
0.00177074
0.0017366
0.00176842
0.00173893
0.00173893
0.0017366
0.00173143
0.00169728
0.0017291
0.0017291
0.00169961
0.00169961
0.00173143
0.00169728
0.0017291
0.0017291
0.00169961
0.00169961
0.0017291
0.00169961
0.00169961
0.00173143
0.00169728
0.0017291
0.00169961
0.00169961
0.00169728
0.00169211
0.00165796
0.00168978
0.00168978
0.00166029
0.00166029
0.00169211
0.00165796
0.00168978
0.00168978
0.00166029
0.00166029
0.00168978
0.00166029
0.00166029
0.00169211
0.00165796
0.00168978
0.00166029
0.00166029
0.00165796
0.00165279
0.00161865
0.00165046
0.00165046
0.00162097
0.00162097
0.00165279
0.00161865
0.00165046
0.00165046
0.00162097
0.00162097
0.00165046
0.00162097
0.00162097
0.00165279
0.00161865
0.00165046
0.00162097
0.00162097
0.00161865
0.00161347
0.00157933
0.00161114
0.00161114
0.00158165
0.00158165
0.00161347
0.00157933
0.00161114
0.00161114
0.00158165
0.00158165
0.00161114
0.00158165
0.00158165
0.00161347
0.00157933
0.00161114
0.00158165
0.00158165
0.00157933
0.00157415
0.00154001
0.00157182
0.00157182
0.00154233
0.00154233
0.00157415
0.00154001
0.00157182
0.00157182
0.00154233
0.00154233
0.00157182
0.00154233
0.00154233
0.00157415
0.00154001
0.00157182
0.00154233
0.00154233
0.00154001
0.00153483
0.00150069
0.0015325
0.0015325
0.00150301
0.00150301
0.00153483
0.00150069
0.0015325
0.0015325
0.00150301
0.00150301
0.0015325
0.00150301
0.00150301
0.00153483
0.00150068
0.0015325
0.00150301
0.00150301
0.00150069
0.00149551
0.00146136
0.00149318
0.00149318
0.00146369
0.00146369
0.00149551
0.00146136
0.00149318
0.00149318
0.00146369
0.00146369
0.00149318
0.00146369
0.00146369
0.00149551
0.00146136
0.00149318
0.00146369
0.00146369
0.00146136
0.00145619
0.00142204
0.00145386
0.00145386
0.00142437
0.00142437
0.00145619
0.00142204
0.00145386
0.00145386
0.00142437
0.00142437
0.00145386
0.00142437
0.00142437
0.00145619
0.00142204
0.00145386
0.00142437
0.00142437
0.00142204
0.00141687
0.00138272
0.00141454
0.00141454
0.00138505
0.00138505
0.00141687
0.00138272
0.00141454
0.00141454
0.00138505
0.00138505
0.00141454
0.00138505
0.00138505
0.00141687
0.00138272
0.00141454
0.00138505
0.00138505
0.00138272
0.00137755
0.0013434
0.00137522
0.00137522
0.00134573
0.00134573
0.00137755
0.0013434
0.00137522
0.00137522
0.00134573
0.00134573
0.00137522
0.00134573
0.00134573
0.00137755
0.0013434
0.00137522
0.00134573
0.00134573
0.0013434
0.00133823
0.00130408
0.0013359
0.0013359
0.00130641
0.00130641
0.00133823
0.00130408
0.0013359
0.0013359
0.00130641
0.00130641
0.0013359
0.00130641
0.00130641
0.00133823
0.00130408
0.0013359
0.00130641
0.00130641
0.00130408
0.00129891
0.00126476
0.00129658
0.00129658
0.00126709
0.00126709
0.00129891
0.00126476
0.00129658
0.00129658
0.00126709
0.00126709
0.00129658
0.00126709
0.00126709
0.00129891
0.00126476
0.00129658
0.00126709
0.00126709
0.00126476
0.00125959
0.00122544
0.00125726
0.00125726
0.00122777
0.00122777
0.00125959
0.00122544
0.00125726
0.00125726
0.00122777
0.00122777
0.00125726
0.00122777
0.00122777
0.00125959
0.00122544
0.00125726
0.00122777
0.00122777
0.00122544
0.00122027
0.00118612
0.00121794
0.00121794
0.00118845
0.00118845
0.00122027
0.00118612
0.00121794
0.00121794
0.00118845
0.00118845
0.00121794
0.00118845
0.00118845
0.00122027
0.00118612
0.00121794
0.00118845
0.00118845
0.00118612
0.00118094
0.0011468
0.00117862
0.00117862
0.00114913
0.00114913
0.00118094
0.0011468
0.00117862
0.00117862
0.00114913
0.00114913
0.00117862
0.00114913
0.00114913
0.00118094
0.0011468
0.00117862
0.00114913
0.00114913
0.0011468
0.00114162
0.00110748
0.0011393
0.0011393
0.00110981
0.00110981
0.00114162
0.00110748
0.0011393
0.0011393
0.00110981
0.00110981
0.0011393
0.00110981
0.00110981
0.00114162
0.00110748
0.0011393
0.00110981
0.00110981
0.00110748
0.00110231
0.00106816
0.00109998
0.00109998
0.00107049
0.00107049
0.00110231
0.00106816
0.00109998
0.00109998
0.00107049
0.00107049
0.00109998
0.00107049
0.00107049
0.00110231
0.00106816
0.00109998
0.00107049
0.00107049
0.00106816
0.00106299
0.00102885
0.00106066
0.00106066
0.00103118
0.00103118
0.00106299
0.00102885
0.00106066
0.00106066
0.00103118
0.00103118
0.00106066
0.00103118
0.00103118
0.00106299
0.00102885
0.00106066
0.00103118
0.00103118
0.00102885
0.00102368
0.000989537
0.00102135
0.00102135
0.000991864
0.000991864
0.00102368
0.000989537
0.00102135
0.00102135
0.000991864
0.000991864
0.00102135
0.000991864
0.000991864
0.00102368
0.000989537
0.00102135
0.000991863
0.000991863
0.000989537
0.000984364
0.000950226
0.000982036
0.000982036
0.000952553
0.000952553
0.000984363
0.000950226
0.000982036
0.000982036
0.000952553
0.000952553
0.000982036
0.000952553
0.000952553
0.000984364
0.000950227
0.000982036
0.000952554
0.000952554
0.000950227
0.000945053
0.000910916
0.000942726
0.000942725
0.000913243
0.000913243
0.000945053
0.000910916
0.000942725
0.000942726
0.000913243
0.000913243
0.000942726
0.000913243
0.000913243
0.000945054
0.000910916
0.000942726
0.000913243
0.000913243
0.000910916
0.000905743
0.000871605
0.000903415
0.000903415
0.000873932
0.000873932
0.000905743
0.000871605
0.000903415
0.000903415
0.000873932
0.000873932
0.000903415
0.000873932
0.000873932
0.000905743
0.000871605
0.000903415
0.000873932
0.000873932
0.000871605
0.000866432
0.000832293
0.000864104
0.000864104
0.00083462
0.00083462
0.000866432
0.000832294
0.000864104
0.000864104
0.00083462
0.00083462
0.000864104
0.00083462
0.00083462
0.000866432
0.000832293
0.000864104
0.00083462
0.00083462
0.000832293
0.00082712
0.000792981
0.000824792
0.000824792
0.000795308
0.000795308
0.00082712
0.000792981
0.000824792
0.000824792
0.000795308
0.000795308
0.000824792
0.000795308
0.000795308
0.00082712
0.000792981
0.000824792
0.000795308
0.000795308
0.000792981
0.000787807
0.000753667
0.000785479
0.000785479
0.000755994
0.000755994
0.000787807
0.000753667
0.000785479
0.000785479
0.000755994
0.000755994
0.000785479
0.000755994
0.000755994
0.000787807
0.000753667
0.000785479
0.000755994
0.000755994
0.000753667
0.000748493
0.000714354
0.000746166
0.000746165
0.000716681
0.00071668
0.000748493
0.000714354
0.000746165
0.000746165
0.00071668
0.00071668
0.000746166
0.00071668
0.000716681
0.000748493
0.000714353
0.000746165
0.00071668
0.00071668
0.000714353
0.00070918
0.000675041
0.000706852
0.000706852
0.000677368
0.000677368
0.00070918
0.000675041
0.000706852
0.000706852
0.000677368
0.000677368
0.000706852
0.000677368
0.000677368
0.00070918
0.000675041
0.000706852
0.000677368
0.000677368
0.000675041
0.000669868
0.00063573
0.00066754
0.00066754
0.000638057
0.000638057
0.000669868
0.000635731
0.00066754
0.00066754
0.000638057
0.000638057
0.00066754
0.000638057
0.000638057
0.000669868
0.00063573
0.00066754
0.000638057
0.000638057
0.00063573
0.000630557
0.000596419
0.00062823
0.00062823
0.000598746
0.000598746
0.000630557
0.00059642
0.000628229
0.00062823
0.000598746
0.000598746
0.00062823
0.000598746
0.000598746
0.000630557
0.000596419
0.00062823
0.000598746
0.000598746
0.000596419
0.000591246
0.000557107
0.000588918
0.000588918
0.000559434
0.000559434
0.000591246
0.000557108
0.000588918
0.000588918
0.000559434
0.000559434
0.000588918
0.000559434
0.000559434
0.000591246
0.000557107
0.000588918
0.000559434
0.000559434
0.000557108
0.000551934
0.000517795
0.000549606
0.000549606
0.000520122
0.000520122
0.000551934
0.000517795
0.000549606
0.000549606
0.000520122
0.000520122
0.000549607
0.000520122
0.000520122
0.000551934
0.000517795
0.000549606
0.000520122
0.000520122
0.000517795
0.000512622
0.000478481
0.000510294
0.000510294
0.000480808
0.000480808
0.000512622
0.000478481
0.000510294
0.000510294
0.000480808
0.000480808
0.000510294
0.000480808
0.000480808
0.000512622
0.000478481
0.000510294
0.000480808
0.000480808
0.000478481
0.000473308
0.000439165
0.00047098
0.00047098
0.000441492
0.000441492
0.000473308
0.000439165
0.00047098
0.00047098
0.000441492
0.000441492
0.00047098
0.000441492
0.000441493
0.000473308
0.000439165
0.00047098
0.000441492
0.000441492
0.000439165
0.000433992
0.000399849
0.000431664
0.000431664
0.000402177
0.000402177
0.000433992
0.000399849
0.000431664
0.000431664
0.000402177
0.000402177
0.000431664
0.000402177
0.000402177
0.000433992
0.000399849
0.000431664
0.000402177
0.000402177
0.000399849
0.000394672
0.000360534
0.000392345
0.000392345
0.000362861
0.000362861
0.000394672
0.000360534
0.000392345
0.000392345
0.00036286
0.000362861
0.000392345
0.00036286
0.000362861
0.000394672
0.000360534
0.000392345
0.00036286
0.000362861
0.000360534
0.000355355
0.000321217
0.000353028
0.000353028
0.000323542
0.000323542
0.000355355
0.000321217
0.000353028
0.000353028
0.000323542
0.000323542
0.000353028
0.000323542
0.000323542
0.000355355
0.000321217
0.000353028
0.000323542
0.000323542
0.000321217
0.000316043
0.000281901
0.000313717
0.000313716
0.000284227
0.000284227
0.000316043
0.000281901
0.000313716
0.000313717
0.000284227
0.000284227
0.000313717
0.000284227
0.000284227
0.000316044
0.000281901
0.000313716
0.000284227
0.000284227
0.000281901
0.000276722
0.000242591
0.0002744
0.0002744
0.000244916
0.000244916
0.000276722
0.000242591
0.0002744
0.0002744
0.000244916
0.000244916
0.0002744
0.000244916
0.000244916
0.000276723
0.000242591
0.0002744
0.000244916
0.000244916
0.000242591
0.000237406
0.000203277
0.000235084
0.000235084
0.000205598
0.000205597
0.000237406
0.000203277
0.000235084
0.000235084
0.000205597
0.000205598
0.000235084
0.000205597
0.000205597
0.000237406
0.000203276
0.000235084
0.000205597
0.000205597
0.000203276
0.000198088
0.000163963
0.000195772
0.000195772
0.000166282
0.000166282
0.000198088
0.000163963
0.000195772
0.000195772
0.000166282
0.000166282
0.000195772
0.000166282
0.000166282
0.000198088
0.000163963
0.000195772
0.000166282
0.000166282
0.000163963
0.000158755
0.000124642
0.000156449
0.000156449
0.000126955
0.000126955
0.000158755
0.000124642
0.000156449
0.000156449
0.000126954
0.000126954
0.000156449
0.000126955
0.000126955
0.000158755
0.000124642
0.000156449
0.000126954
0.000126955
0.000124642
0.000119412
8.53138e-05
0.000117125
0.000117125
8.76211e-05
8.76213e-05
0.000119412
8.53145e-05
0.000117124
0.000117124
8.76206e-05
8.76201e-05
0.000117124
8.7621e-05
8.76204e-05
0.000119412
8.53129e-05
0.000117124
8.762e-05
8.76201e-05
8.53131e-05
8.0045e-05
4.60582e-05
7.77856e-05
7.77858e-05
4.83754e-05
4.8376e-05
8.0045e-05
4.60593e-05
7.77848e-05
7.77842e-05
4.83735e-05
4.83726e-05
7.77848e-05
4.83745e-05
4.83724e-05
8.00443e-05
4.60556e-05
7.77842e-05
4.83719e-05
4.83711e-05
4.60553e-05
4.08227e-05
1.03886e-05
3.87499e-05
3.87502e-05
1.27144e-05
1.27137e-05
4.08232e-05
1.03881e-05
3.87479e-05
3.87461e-05
1.27131e-05
1.27094e-05
3.87455e-05
1.27115e-05
1.27074e-05
4.08195e-05
1.03844e-05
3.87444e-05
1.27093e-05
1.27091e-05
1.03832e-05
6.92041e-06
7.06577e-06
7.06492e-06
6.92088e-06
7.0634e-06
7.06156e-06
7.04123e-06
7.03944e-06
7.03887e-06
7.0604e-06
6.91784e-06
7.06086e-06
0.00377234
0.00377817
0.00377524
0.00377519
0.00379391
0.00378094
0.00380834
0.00377712
0.00379383
0.00378068
0.00377703
0.00380466
0.00378606
0.00380816
0.00380793
0.0037404
0.00375574
0.00375948
0.00373217
0.00373216
0.00373582
0.00374021
0.00375828
0.00375957
0.00373157
0.00375767
0.00375771
0.00375769
0.0037277
0.0037277
0.00372762
0.00372772
0.00374005
0.00375451
0.00375821
0.00374675
0.00376071
0.0037366
0.00374752
0.00373259
0.003735
0.00374004
0.00375817
0.00375445
0.00374676
0.00376056
0.00374749
0.00373649
0.00375985
0.0037598
0.00374322
0.0037364
0.00373647
0.00371371
0.00372653
0.00372616
0.00371133
0.00372401
0.00371022
0.00371354
0.0037265
0.00372631
0.00371156
0.0037192
0.00371911
0.00371922
0.00369342
0.0036934
0.00369346
0.00369341
0.00371145
0.00372567
0.0037186
0.00371088
0.00372313
0.00371164
0.0037104
0.00372376
0.00371066
0.00371142
0.00371863
0.00372559
0.00371105
0.00372313
0.00371047
0.00371171
0.00372705
0.00372685
0.00370988
0.00371226
0.00371237
0.0036712
0.00368564
0.0036863
0.0036696
0.00368476
0.00366924
0.00367126
0.00368571
0.00368635
0.00366966
0.00368299
0.00368302
0.00368303
0.00364861
0.00364861
0.00364862
0.00364861
0.00366939
0.00368538
0.00368213
0.0036713
0.00368436
0.00367038
0.00367093
0.00368454
0.0036689
0.00366943
0.00368213
0.00368568
0.00367148
0.0036844
0.00367098
0.00366998
0.00368613
0.00368616
0.00366841
0.00367017
0.00367021
0.00362364
0.00363995
0.00364105
0.00362213
0.00363953
0.00362161
0.00362358
0.0036399
0.00364101
0.00362229
0.00363693
0.00363695
0.00363689
0.00360127
0.00360128
0.00360127
0.00360123
0.00362222
0.00364002
0.00363638
0.00362477
0.00363943
0.00362234
0.00362455
0.0036394
0.00362162
0.00362225
0.00363634
0.00364016
0.00362487
0.00363945
0.00362455
0.00362269
0.00364027
0.00364031
0.00362169
0.00362227
0.00362228
0.00357505
0.00359171
0.00359302
0.00357366
0.00359153
0.00357314
0.00357499
0.00359181
0.00359306
0.00357374
0.00358918
0.00358918
0.00358912
0.0035528
0.00355278
0.00355277
0.00355273
0.00357378
0.00359193
0.0035886
0.00357677
0.00359168
0.0035741
0.0035765
0.00359145
0.00357323
0.00357378
0.00358857
0.00359204
0.00357684
0.00359169
0.00357652
0.00357402
0.00359169
0.00359204
0.00357338
0.00357342
0.00357336
0.00352609
0.00354302
0.00354427
0.00352501
0.00354289
0.00352447
0.00352609
0.00354321
0.00354427
0.00352509
0.00354071
0.00354071
0.00354071
0.00350465
0.00350469
0.00350469
0.00350474
0.00352528
0.00354356
0.0035402
0.00352848
0.00354324
0.00352555
0.00352822
0.00354286
0.00352459
0.00352525
0.00354021
0.00354357
0.00352846