/*--------------------------------*- C++ -*----------------------------------*\
| =========                 |                                                 |
| \\      /  F ield         | OpenFOAM: The Open Source CFD Toolbox           |
|  \\    /   O peration     | Version:  v1906                                 |
|   \\  /    A nd           | Web:      www.OpenFOAM.com                      |
|    \\/     M anipulation  |                                                 |
\*---------------------------------------------------------------------------*/
FoamFile
{
    version     2.0;
    format      ascii;
    class       volScalarField;
    location    "337.5";
    object      epsilon;
}
// * * * * * * * * * * * * * * * * * * * * * * * * * * * * * * * * * * * * * //

dimensions      [0 2 -3 0 0 0 0];


internalField   nonuniform List<scalar> 
171728
(
3.03413e-09
4.64086e-09
3.39848e-09
5.11996e-09
3.00016e-09
4.24561e-09
3.12463e-09
4.6236e-09
2.9519e-09
3.87449e-09
2.86793e-09
4.20959e-09
2.90887e-09
3.55308e-09
2.64552e-09
3.86405e-09
2.87091e-09
3.27525e-09
2.46932e-09
3.57762e-09
2.83809e-09
3.0426e-09
2.32924e-09
3.35449e-09
2.80964e-09
2.85249e-09
2.22521e-09
3.1668e-09
2.7848e-09
2.69962e-09
2.15737e-09
2.99937e-09
2.7629e-09
2.58558e-09
2.12822e-09
2.85983e-09
2.74491e-09
2.51204e-09
2.13038e-09
2.74842e-09
2.73126e-09
2.47758e-09
2.16419e-09
2.6237e-09
2.72253e-09
2.4776e-09
2.22597e-09
2.53861e-09
2.71783e-09
2.5245e-09
2.32572e-09
2.51433e-09
2.71668e-09
2.63674e-09
2.48438e-09
2.50105e-09
2.71982e-09
2.82815e-09
2.72346e-09
2.53502e-09
2.72811e-09
3.13998e-09
3.07872e-09
2.70895e-09
2.74206e-09
3.63012e-09
3.60888e-09
3.1357e-09
2.76251e-09
4.36414e-09
4.40376e-09
3.87039e-09
2.79008e-09
5.51114e-09
5.56918e-09
5.16558e-09
2.82676e-09
7.18188e-09
7.35628e-09
7.46556e-09
2.87427e-09
9.66802e-09
1.02702e-08
1.16971e-08
2.94019e-09
1.3067e-08
1.41229e-08
1.83028e-08
3.02689e-09
1.80327e-08
1.96271e-08
2.81071e-08
3.14861e-09
2.51281e-08
2.73539e-08
4.78573e-08
3.31565e-09
3.36112e-08
3.52301e-08
7.51997e-08
3.53941e-09
4.45412e-08
4.61141e-08
1.10408e-07
3.86364e-09
5.95884e-08
6.18544e-08
1.6126e-07
4.28023e-09
7.61897e-08
7.63196e-08
2.21947e-07
4.86475e-09
9.53063e-08
9.59121e-08
2.95303e-07
5.60599e-09
1.19571e-07
1.1976e-07
3.70686e-07
6.59995e-09
1.42996e-07
1.43169e-07
4.49962e-07
7.90996e-09
1.7519e-07
1.74836e-07
5.2393e-07
9.5035e-09
2.08091e-07
2.06024e-07
5.94962e-07
1.18509e-08
2.39257e-07
2.42022e-07
6.57469e-07
1.43448e-08
2.87203e-07
2.79869e-07
7.13821e-07
1.79817e-08
3.23909e-07
3.22492e-07
7.67937e-07
2.22055e-08
3.62319e-07
3.6079e-07
8.08362e-07
2.68568e-08
4.08109e-07
4.18706e-07
8.50216e-07
3.34377e-08
4.61229e-07
4.53778e-07
8.90255e-07
4.19533e-08
5.03568e-07
5.0884e-07
9.21702e-07
5.09922e-08
5.51737e-07
5.67699e-07
9.56354e-07
5.96035e-08
6.05678e-07
5.98431e-07
9.87795e-07
7.37791e-08
6.55883e-07
6.51682e-07
1.01443e-06
8.78146e-08
6.87593e-07
7.0021e-07
1.04393e-06
1.01571e-07
7.52384e-07
7.50052e-07
1.08118e-06
1.2321e-07
8.00674e-07
7.86529e-07
1.10293e-06
1.39709e-07
8.28714e-07
8.28975e-07
1.12308e-06
1.62553e-07
8.66168e-07
8.74202e-07
1.15948e-06
1.90005e-07
9.07273e-07
9.06085e-07
1.17989e-06
2.11817e-07
9.46866e-07
9.47348e-07
1.20462e-06
2.43631e-07
9.68081e-07
9.72427e-07
1.22721e-06
2.64957e-07
1.00722e-06
1.00039e-06
1.24969e-06
3.0464e-07
1.04099e-06
1.04046e-06
1.27961e-06
3.34578e-07
1.05344e-06
1.05658e-06
1.2892e-06
3.57698e-07
1.07846e-06
1.07832e-06
1.30707e-06
3.91414e-07
1.10401e-06
1.1066e-06
1.33102e-06
4.26436e-07
1.12699e-06
1.12085e-06
1.34442e-06
4.48052e-07
1.14135e-06
1.14453e-06
1.35978e-06
4.78963e-07
1.16032e-06
1.15596e-06
1.3731e-06
5.06315e-07
1.17692e-06
1.18051e-06
1.3906e-06
5.32709e-07
1.19273e-06
1.18796e-06
1.39715e-06
5.54998e-07
1.20272e-06
1.20719e-06
1.41523e-06
5.79544e-07
1.22294e-06
1.21769e-06
1.42526e-06
6.01827e-07
1.22637e-06
1.23104e-06
1.43447e-06
6.21638e-07
1.238e-06
1.23712e-06
1.44439e-06
6.35896e-07
1.25054e-06
1.24929e-06
1.45396e-06
6.54383e-07
1.25471e-06
1.25838e-06
1.46355e-06
6.72461e-07
1.2622e-06
1.26254e-06
1.46432e-06
6.83015e-07
1.26417e-06
1.26619e-06
1.47024e-06
6.96483e-07
1.27332e-06
1.27452e-06
1.47801e-06
7.07958e-07
1.27337e-06
1.27275e-06
1.47963e-06
7.11209e-07
1.26566e-06
1.26501e-06
1.466e-06
7.25929e-07
1.28287e-06
1.28334e-06
1.49144e-06
7.49202e-07
1.30345e-06
1.30377e-06
1.52468e-06
7.44756e-07
1.27996e-06
1.27986e-06
1.50323e-06
7.08456e-07
1.22017e-06
1.22004e-06
1.42416e-06
6.89403e-07
1.19751e-06
1.19745e-06
1.39111e-06
7.04303e-07
1.219e-06
1.21894e-06
1.42323e-06
7.53833e-07
1.2821e-06
1.28203e-06
1.50326e-06
8.01872e-07
1.3486e-06
1.34857e-06
1.59501e-06
8.15736e-07
1.37023e-06
1.37025e-06
1.63299e-06
7.85388e-07
1.32288e-06
1.32294e-06
1.57659e-06
7.2902e-07
1.23935e-06
1.23941e-06
1.46202e-06
6.91627e-07
1.18122e-06
1.18127e-06
1.38275e-06
6.79603e-07
1.15613e-06
1.15618e-06
1.35632e-06
6.79238e-07
1.15273e-06
1.15278e-06
1.36522e-06
6.81096e-07
1.15603e-06
1.15609e-06
1.38171e-06
6.75182e-07
1.15479e-06
1.15485e-06
1.39085e-06
6.69983e-07
1.15214e-06
1.15221e-06
1.39413e-06
6.67374e-07
1.15052e-06
1.15059e-06
1.39531e-06
6.66163e-07
1.14974e-06
1.1498e-06
1.39548e-06
6.65588e-07
1.14935e-06
1.14941e-06
1.39523e-06
6.65424e-07
1.14926e-06
1.14932e-06
1.39519e-06
6.65158e-07
1.14899e-06
1.14905e-06
1.39508e-06
6.47614e-07
1.09521e-06
1.0952e-06
1.35357e-06
5.13971e-09
4.48852e-09
4.07312e-09
4.82866e-09
4.22295e-09
4.43086e-09
3.02638e-09
3.00054e-09
2.9704e-09
3.14784e-09
4.18632e-09
4.71162e-09
5.1422e-09
4.19871e-09
4.25898e-09
5.14997e-09
5.11416e-09
4.68064e-09
4.77781e-09
4.81202e-09
4.46693e-09
4.58611e-09
4.79982e-09
4.39354e-09
4.65492e-09
4.85016e-09
4.35072e-09
4.53109e-09
5.20233e-09
4.34724e-09
4.95076e-09
5.12717e-09
4.68216e-09
4.76372e-09
3.19473e-09
4.44005e-09
4.67442e-09
4.6486e-09
4.25819e-09
4.35859e-09
4.50263e-09
4.05662e-09
4.2686e-09
4.35993e-09
4.00655e-09
4.24459e-09
4.42001e-09
3.94832e-09
4.11162e-09
4.86249e-09
3.96233e-09
4.62297e-09
4.65329e-09
4.24587e-09
4.32901e-09
2.92932e-09
4.01969e-09
4.26008e-09
4.23045e-09
3.89036e-09
3.96202e-09
4.18572e-09
3.69922e-09
3.90551e-09
3.97753e-09
3.67291e-09
3.85656e-09
4.01578e-09
3.60027e-09
3.75044e-09
4.55005e-09
3.62891e-09
4.34516e-09
4.22139e-09
3.86942e-09
3.92291e-09
2.6969e-09
3.65614e-09
3.91266e-09
3.86661e-09
3.57269e-09
3.61738e-09
3.80203e-09
3.3902e-09
3.4825e-09
3.64777e-09
3.37785e-09
3.52028e-09
3.66779e-09
3.29803e-09
3.43694e-09
4.28336e-09
3.34052e-09
4.12379e-09
3.84804e-09
3.54019e-09
3.57421e-09
2.50955e-09
3.35098e-09
3.61943e-09
3.55263e-09
3.29785e-09
3.32001e-09
3.37685e-09
3.12696e-09
3.09728e-09
3.35669e-09
3.12616e-09
3.22984e-09
3.3649e-09
3.04402e-09
3.16824e-09
4.08129e-09
3.09646e-09
3.97794e-09
3.5223e-09
3.2488e-09
3.28279e-09
2.36121e-09
3.09792e-09
3.37334e-09
3.28154e-09
3.06259e-09
3.06845e-09
3.01708e-09
2.91019e-09
2.81298e-09
3.10991e-09
2.91082e-09
2.98805e-09
3.1081e-09
2.8383e-09
2.946e-09
3.94979e-09
2.89636e-09
3.88559e-09
3.23427e-09
2.99122e-09
3.04285e-09
2.24865e-09
2.89749e-09
3.17985e-09
3.05048e-09
2.8628e-09
2.86368e-09
2.75645e-09
2.74032e-09
2.61685e-09
2.89823e-09
2.72388e-09
2.79331e-09
2.89752e-09
2.67664e-09
2.76805e-09
3.86946e-09
2.73406e-09
3.82629e-09
2.98057e-09
2.78141e-09
2.85345e-09
2.17159e-09
2.72947e-09
3.00904e-09
2.8544e-09
2.69909e-09
2.70459e-09
2.57874e-09
2.61284e-09
2.48615e-09
2.71494e-09
2.5687e-09
2.6424e-09
2.73046e-09
2.55649e-09
2.63322e-09
3.81556e-09
2.61043e-09
3.79918e-09
2.77465e-09
2.61518e-09
2.69206e-09
2.13234e-09
2.59196e-09
2.86572e-09
2.69445e-09
2.56809e-09
2.5878e-09
2.4627e-09
2.52685e-09
2.41404e-09
2.56384e-09
2.44583e-09
2.53235e-09
2.60558e-09
2.4765e-09
2.53888e-09
3.79631e-09
2.52591e-09
3.77881e-09
2.61229e-09
2.48991e-09
2.56489e-09
2.12749e-09
2.50032e-09
2.7512e-09
2.5675e-09
2.47238e-09
2.51109e-09
2.40342e-09
2.47696e-09
2.37915e-09
2.44503e-09
2.36197e-09
2.46168e-09
2.52159e-09
2.4331e-09
2.48423e-09
3.75991e-09
2.48161e-09
3.63986e-09
2.49083e-09
2.40178e-09
2.48356e-09
2.15271e-09
2.45014e-09
2.62685e-09
2.47543e-09
2.41191e-09
2.47152e-09
2.37303e-09
2.4677e-09
2.37676e-09
2.36529e-09
2.3132e-09
2.42796e-09
2.47839e-09
2.42835e-09
2.47332e-09
3.5844e-09
2.47408e-09
3.39994e-09
2.40617e-09
2.34972e-09
2.44297e-09
2.20768e-09
2.44283e-09
2.53167e-09
2.42045e-09
2.39172e-09
2.47125e-09
2.38336e-09
2.50469e-09
2.42685e-09
2.32255e-09
2.30199e-09
2.43336e-09
2.47674e-09
2.46786e-09
2.50936e-09
3.33907e-09
2.5088e-09
3.17595e-09
2.35988e-09
2.33709e-09
2.44839e-09
2.29538e-09
2.48539e-09
2.50044e-09
2.41007e-09
2.42291e-09
2.52115e-09
2.44777e-09
2.59986e-09
2.53208e-09
2.32071e-09
2.33837e-09
2.48577e-09
2.52756e-09
2.56371e-09
2.6051e-09
3.13033e-09
2.60131e-09
3.01555e-09
2.35647e-09
2.37415e-09
2.50536e-09
2.43942e-09
2.58369e-09
2.47927e-09
2.45534e-09
2.52314e-09
2.63272e-09
2.56888e-09
2.76743e-09
2.70518e-09
2.37073e-09
2.4419e-09
2.59825e-09
2.64049e-09
2.7347e-09
2.78077e-09
2.97996e-09
2.7705e-09
2.8746e-09
2.40702e-09
2.47803e-09
2.61803e-09
2.65416e-09
2.75142e-09
2.49093e-09
2.57925e-09
2.72786e-09
2.82374e-09
2.76292e-09
3.04307e-09
2.98753e-09
2.4974e-09
2.64267e-09
2.79294e-09
2.83875e-09
3.01264e-09
3.05938e-09
2.87242e-09
3.04863e-09
2.93044e-09
2.53435e-09
2.68549e-09
2.8045e-09
2.9754e-09
3.01762e-09
2.63266e-09
2.82524e-09
3.0996e-09
3.13694e-09
3.08083e-09
3.48047e-09
3.43465e-09
2.73691e-09
3.03182e-09
3.10898e-09
3.15573e-09
3.4455e-09
3.49843e-09
2.95524e-09
3.49261e-09
3.18844e-09
2.78021e-09
3.0609e-09
3.10657e-09
3.44938e-09
3.45194e-09
2.98318e-09
3.26284e-09
3.75057e-09
3.62453e-09
3.57489e-09
4.15746e-09
4.10502e-09
3.18172e-09
3.66438e-09
3.59681e-09
3.64064e-09
4.11216e-09
4.18298e-09
3.3308e-09
4.14651e-09
3.86949e-09
3.22205e-09
3.71215e-09
3.59521e-09
4.16027e-09
4.13467e-09
3.62543e-09
4.01744e-09
4.88964e-09
4.37759e-09
4.32803e-09
5.17764e-09
5.14529e-09
3.92929e-09
4.833e-09
4.343e-09
4.41297e-09
5.13686e-09
5.19918e-09
4.06453e-09
5.17097e-09
4.82799e-09
3.98762e-09
4.83915e-09
4.33528e-09
5.21646e-09
5.15786e-09
4.74202e-09
5.3213e-09
6.86199e-09
5.50825e-09
5.48625e-09
6.69254e-09
6.64015e-09
5.28669e-09
6.80027e-09
5.45585e-09
5.552e-09
6.65651e-09
6.70536e-09
5.12684e-09
6.66613e-09
6.33516e-09
5.29345e-09
6.84164e-09
5.47249e-09
6.8129e-09
6.68949e-09
6.78446e-09
7.56081e-09
1.05203e-08
7.18517e-09
7.15897e-09
8.95991e-09
8.97e-09
7.53154e-09
1.0552e-08
7.14935e-09
7.20372e-09
8.86414e-09
9.08799e-09
6.79949e-09
8.97984e-09
8.61925e-09
7.52858e-09
1.06877e-08
7.13628e-09
9.39327e-09
8.99414e-09
1.03902e-08
1.15099e-08
1.69654e-08
9.57857e-09
9.65292e-09
1.23612e-08
1.2091e-08
1.16705e-08
1.63785e-08
9.47787e-09
9.72414e-09
1.23428e-08
1.22824e-08
9.29812e-09
1.20905e-08
1.18605e-08
1.18527e-08
1.64368e-08
9.67739e-09
1.28934e-08
1.22057e-08
1.5905e-08
1.92584e-08
2.61517e-08
1.33907e-08
1.30857e-08
1.66469e-08
1.697e-08
1.80854e-08
2.80076e-08
1.3367e-08
1.33949e-08
1.65145e-08
1.67763e-08
1.29794e-08
1.6908e-08
1.61116e-08
1.85192e-08
2.74756e-08
1.33402e-08
1.85124e-08
1.64082e-08
2.56721e-08
2.88852e-08
4.35195e-08
1.79909e-08
1.81088e-08
2.30572e-08
2.30443e-08
3.10266e-08
4.17615e-08
1.78741e-08
1.80981e-08
2.29976e-08
2.30614e-08
1.76649e-08
2.29698e-08
2.27321e-08
3.00985e-08
4.33835e-08
1.79706e-08
2.51303e-08
2.29799e-08
4.45423e-08
4.82456e-08
6.77528e-08
2.49111e-08
2.52111e-08
3.12927e-08
3.13576e-08
4.79064e-08
6.84576e-08
2.48474e-08
2.49428e-08
3.12589e-08
3.13878e-08
2.41899e-08
3.11618e-08
3.12597e-08
4.81955e-08
6.86677e-08
2.43599e-08
3.285e-08
3.13614e-08
6.65985e-08
7.4352e-08
1.03427e-07
3.36816e-08
3.3819e-08
4.24979e-08
4.16167e-08
7.34182e-08
1.03493e-07
3.36115e-08
3.38826e-08
4.23059e-08
4.19517e-08
3.41823e-08
4.1459e-08
4.14649e-08
7.43668e-08
1.03004e-07
3.43234e-08
4.33033e-08
4.16784e-08
1.04515e-07
1.11941e-07
1.48855e-07
4.54824e-08
4.47523e-08
5.4559e-08
5.6387e-08
1.11375e-07
1.53819e-07
4.53391e-08
4.46857e-08
5.43923e-08
5.59327e-08
4.42838e-08
5.60677e-08
5.54006e-08
1.11585e-07
1.49581e-07
4.44073e-08
5.77533e-08
5.52877e-08
1.48753e-07
1.5807e-07
2.1613e-07
5.8809e-08
5.98891e-08
7.31124e-08
7.17802e-08
1.6735e-07
2.06714e-07
5.86509e-08
6.01268e-08
7.27294e-08
7.12562e-08
5.92179e-08
7.1211e-08
7.1469e-08
1.62365e-07
2.11509e-07
5.91302e-08
7.17536e-08
7.13404e-08
2.09428e-07
2.32198e-07
2.72161e-07
7.69756e-08
7.67267e-08
8.98824e-08
9.08136e-08
2.18755e-07
2.83478e-07
7.65082e-08
7.56319e-08
9.00468e-08
9.14586e-08
7.61777e-08
9.04445e-08
9.1049e-08
2.20859e-07
2.7897e-07
7.59498e-08
9.13969e-08
9.09962e-08
2.80669e-07
2.85583e-07
3.63354e-07
9.59429e-08
9.57716e-08
1.14571e-07
1.1407e-07
2.97241e-07
3.54864e-07
9.59215e-08
9.61974e-08
1.1404e-07
1.13141e-07
9.61767e-08
1.13524e-07
1.12955e-07
2.96522e-07
3.53567e-07
9.61256e-08
1.13473e-07
1.12181e-07
3.54594e-07
3.78119e-07
4.31813e-07
1.19853e-07
1.19988e-07
1.36938e-07
1.36442e-07
3.72247e-07
4.30112e-07
1.19565e-07
1.19925e-07
1.36692e-07
1.37837e-07
1.19106e-07
1.35722e-07
1.38649e-07
3.69035e-07
4.34628e-07
1.1855e-07
1.3679e-07
1.38237e-07
4.33681e-07
4.47925e-07
5.08634e-07
1.44382e-07
1.43818e-07
1.68281e-07
1.68492e-07
4.45038e-07
5.09612e-07
1.4409e-07
1.44039e-07
1.67839e-07
1.67647e-07
1.45271e-07
1.67939e-07
1.67018e-07
4.50335e-07
5.04066e-07
1.44774e-07
1.66578e-07
1.66392e-07
5.08601e-07
5.26572e-07
5.76626e-07
1.75406e-07
1.75623e-07
1.97083e-07
1.99329e-07
5.26321e-07
5.84259e-07
1.74853e-07
1.75782e-07
1.96952e-07
1.98931e-07
1.74628e-07
1.98752e-07
1.97618e-07
5.21396e-07
5.83948e-07
1.73889e-07
1.98539e-07
1.97372e-07
5.78866e-07
5.89589e-07
6.46235e-07
2.05473e-07
2.08895e-07
2.34132e-07
2.332e-07
5.97181e-07
6.40621e-07
2.05566e-07
2.07101e-07
2.33427e-07
2.33074e-07
2.07178e-07
2.32237e-07
2.36033e-07
5.97032e-07
6.40359e-07
2.06547e-07
2.32178e-07
2.34014e-07
6.44162e-07
6.61456e-07
7.00292e-07
2.44268e-07
2.40135e-07
2.7125e-07
2.73696e-07
6.5697e-07
7.03334e-07
2.43315e-07
2.42302e-07
2.72406e-07
2.71842e-07
2.43052e-07
2.7273e-07
2.6952e-07
6.55826e-07
7.0185e-07
2.41895e-07
2.70025e-07
2.69207e-07
7.01038e-07
7.13661e-07
7.53028e-07
2.7943e-07
2.88203e-07
3.11565e-07
3.18128e-07
7.17507e-07
7.58541e-07
2.80688e-07
2.81587e-07
3.08569e-07
3.12314e-07
2.81695e-07
3.17475e-07
3.1339e-07
7.14586e-07
7.52682e-07
2.80562e-07
3.12282e-07
3.11706e-07
7.55015e-07
7.64958e-07
7.99491e-07
3.24876e-07
3.24531e-07
3.57823e-07
3.51912e-07
7.6814e-07
7.92388e-07
3.21504e-07
3.23158e-07
3.58304e-07
3.51541e-07
3.22716e-07
3.51342e-07
3.57153e-07
7.64375e-07
7.95492e-07
3.21296e-07
3.5012e-07
3.55585e-07
7.97973e-07
8.09684e-07
8.34816e-07
3.65081e-07
3.62805e-07
3.92864e-07
3.96057e-07
8.04347e-07
8.4039e-07
3.6657e-07
3.61073e-07
3.9429e-07
4.01317e-07
3.68082e-07
3.94078e-07
3.94988e-07
8.07105e-07
8.43068e-07
3.66415e-07
4.04135e-07
3.93847e-07
8.39436e-07
8.45623e-07
8.80114e-07
4.07984e-07
4.10524e-07
4.47747e-07
4.50222e-07
8.50598e-07
8.7891e-07
4.07755e-07
4.16572e-07
4.44502e-07
4.50407e-07
4.06766e-07
4.51267e-07
4.52656e-07
8.53835e-07
8.74832e-07
4.05869e-07
4.4652e-07
4.51344e-07
8.79873e-07
8.90506e-07
9.15216e-07
4.57299e-07
4.59085e-07
4.9592e-07
4.91697e-07
8.88887e-07
9.11765e-07
4.55068e-07
4.57854e-07
4.95718e-07
4.87285e-07
4.65691e-07
4.8962e-07
4.92316e-07
8.83137e-07
9.13923e-07
4.6404e-07
4.91344e-07
4.90341e-07
9.13407e-07
9.24639e-07
9.47453e-07
5.1163e-07
5.0685e-07
5.47735e-07
5.42997e-07
9.20524e-07
9.43847e-07
5.11388e-07
5.03259e-07
5.46936e-07
5.53881e-07
5.02479e-07
5.42546e-07
5.46515e-07
9.25824e-07
9.52586e-07
5.00397e-07
5.56353e-07
5.45599e-07
9.46678e-07
9.54689e-07
9.7403e-07
5.55517e-07
5.51665e-07
5.85595e-07
5.88931e-07
9.52313e-07
9.82513e-07
5.54508e-07
5.65192e-07
5.83715e-07
5.88062e-07
5.59021e-07
5.89179e-07
5.89128e-07
9.59738e-07
9.74951e-07
5.59589e-07
5.91101e-07
5.88931e-07
9.79661e-07
9.83343e-07
1.01254e-06
6.01838e-07
6.05886e-07
6.44745e-07
6.48482e-07
9.93122e-07
1.01054e-06
5.99602e-07
5.96826e-07
6.40749e-07
6.39183e-07
6.0248e-07
6.46789e-07
6.44558e-07
9.82348e-07
1.00679e-06
6.0003e-07
6.34162e-07
6.416e-07
1.00758e-06
1.01993e-06
1.03695e-06
6.53733e-07
6.58211e-07
6.86889e-07
6.81475e-07
1.01532e-06
1.02874e-06
6.5095e-07
6.54046e-07
6.89776e-07
6.83646e-07
6.54353e-07
6.78326e-07
6.80443e-07
1.01652e-06
1.03937e-06
6.52271e-07
6.91042e-07
6.80977e-07
1.03456e-06
1.04446e-06
1.0655e-06
6.97675e-07
6.90137e-07
7.28687e-07
7.31049e-07
1.03682e-06
1.06931e-06
7.02249e-07
6.94024e-07
7.29619e-07
7.36673e-07
6.92745e-07
7.32658e-07
7.40858e-07
1.04652e-06
1.06855e-06
6.94164e-07
7.36534e-07
7.39784e-07
1.0731e-06
1.0734e-06
1.09823e-06
7.42651e-07
7.50218e-07
7.85072e-07
7.94381e-07
1.08013e-06
1.10483e-06
7.39808e-07
7.50612e-07
7.81605e-07
7.79263e-07
7.55679e-07
7.92961e-07
7.8583e-07
1.07682e-06
1.09544e-06
7.53604e-07
7.79293e-07
7.82588e-07
1.09791e-06
1.10532e-06
1.11878e-06
7.9451e-07
8.03268e-07
8.14867e-07
8.2271e-07
1.1106e-06
1.12281e-06
7.93728e-07
7.86691e-07
8.17416e-07
8.17669e-07
7.91807e-07
8.2047e-07
8.11714e-07
1.10104e-06
1.11965e-06
7.88775e-07
8.16397e-07
8.11428e-07
1.11569e-06
1.12464e-06
1.14843e-06
8.23774e-07
8.29619e-07
8.63748e-07
8.58411e-07
1.12828e-06
1.14667e-06
8.252e-07
8.30247e-07
8.59913e-07
8.64567e-07
8.2252e-07
8.58095e-07
8.64679e-07
1.12836e-06
1.15144e-06
8.23568e-07
8.6463e-07
8.65648e-07
1.15229e-06
1.15681e-06
1.17614e-06
8.76452e-07
8.68295e-07
9.00602e-07
8.96611e-07
1.15367e-06
1.17267e-06
8.71993e-07
8.74022e-07
8.97928e-07
8.97693e-07
8.75878e-07
8.9489e-07
8.98069e-07
1.1576e-06
1.17409e-06
8.76443e-07
8.9744e-07
8.98028e-07
1.17439e-06
1.18186e-06
1.19893e-06
9.06893e-07
9.07696e-07
9.33976e-07
9.38461e-07
1.1802e-06
1.20202e-06
9.05795e-07
9.06274e-07
9.3566e-07
9.37359e-07
9.05304e-07
9.39734e-07
9.34968e-07
1.18066e-06
1.20208e-06
9.04686e-07
9.37596e-07
9.32871e-07
1.19786e-06
1.2057e-06
1.22226e-06
9.44618e-07
9.45769e-07
9.67193e-07
9.61949e-07
1.20733e-06
1.21656e-06
9.45899e-07
9.47249e-07
9.67507e-07
9.68362e-07
9.45449e-07
9.62257e-07
9.67956e-07
1.2087e-06
1.22232e-06
9.43669e-07
9.67589e-07
9.68262e-07
1.22201e-06
1.22718e-06
1.24225e-06
9.72491e-07
9.67958e-07
9.94138e-07
9.95851e-07
1.22121e-06
1.2446e-06
9.72537e-07
9.7335e-07
9.92769e-07
9.91725e-07
9.73157e-07
9.95326e-07
9.93145e-07
1.22657e-06
1.23964e-06
9.7375e-07
9.91023e-07
9.934e-07
1.24275e-06
1.24956e-06
1.2736e-06
1.00475e-06
1.00775e-06
1.03364e-06
1.03556e-06
1.25391e-06
1.27759e-06
1.00298e-06
1.00091e-06
1.03307e-06
1.03285e-06
1.00309e-06
1.03532e-06
1.03372e-06
1.24649e-06
1.27348e-06
1.00303e-06
1.03267e-06
1.033e-06
1.27388e-06
1.27876e-06
1.2842e-06
1.03938e-06
1.04109e-06
1.04981e-06
1.05027e-06
1.28225e-06
1.28539e-06
1.03945e-06
1.04053e-06
1.05066e-06
1.05338e-06
1.04074e-06
1.05056e-06
1.05231e-06
1.27976e-06
1.28809e-06
1.04014e-06
1.05352e-06
1.05201e-06
1.28655e-06
1.28713e-06
1.30294e-06
1.0535e-06
1.05306e-06
1.07298e-06
1.06963e-06
1.28753e-06
1.29822e-06
1.05445e-06
1.05656e-06
1.0725e-06
1.07121e-06
1.05521e-06
1.06962e-06
1.07044e-06
1.29084e-06
1.30105e-06
1.05505e-06
1.07076e-06
1.07052e-06
1.29969e-06
1.31074e-06
1.32521e-06
1.08167e-06
1.07893e-06
1.09877e-06
1.1031e-06
1.30639e-06
1.32801e-06
1.07972e-06
1.07851e-06
1.09776e-06
1.10056e-06
1.07868e-06
1.1005e-06
1.10117e-06
1.30792e-06
1.32633e-06
1.07857e-06
1.10179e-06
1.10037e-06
1.32691e-06
1.32945e-06
1.34448e-06
1.10399e-06
1.10661e-06
1.12271e-06
1.12023e-06
1.33156e-06
1.33998e-06
1.10495e-06
1.1064e-06
1.12418e-06
1.11823e-06
1.10551e-06
1.1199e-06
1.11872e-06
1.331e-06
1.33951e-06
1.10509e-06
1.11621e-06
1.11874e-06
1.33969e-06
1.34884e-06
1.35149e-06
1.12697e-06
1.12643e-06
1.13436e-06
1.13668e-06
1.34579e-06
1.35617e-06
1.1274e-06
1.12209e-06
1.13412e-06
1.13832e-06
1.12425e-06
1.13917e-06
1.13902e-06
1.34307e-06
1.35485e-06
1.12383e-06
1.14008e-06
1.13816e-06
1.35604e-06
1.35451e-06
1.37229e-06
1.13809e-06
1.13904e-06
1.15807e-06
1.15488e-06
1.35855e-06
1.36729e-06
1.13808e-06
1.14287e-06
1.15748e-06
1.15263e-06
1.14237e-06
1.15401e-06
1.15411e-06
1.36008e-06
1.3677e-06
1.14181e-06
1.15186e-06
1.15371e-06
1.36802e-06
1.37854e-06
1.38517e-06
1.16429e-06
1.16207e-06
1.17266e-06
1.17351e-06
1.37376e-06
1.38569e-06
1.1635e-06
1.15761e-06
1.17308e-06
1.17629e-06
1.15987e-06
1.17349e-06
1.17471e-06
1.37129e-06
1.38684e-06
1.15949e-06
1.17577e-06
1.17534e-06
1.38714e-06
1.38771e-06
1.39694e-06
1.17516e-06
1.17571e-06
1.18842e-06
1.18859e-06
1.38857e-06
1.39741e-06
1.17616e-06
1.18012e-06
1.18829e-06
1.18536e-06
1.17771e-06
1.18957e-06
1.18579e-06
1.39186e-06
1.39494e-06
1.17825e-06
1.18592e-06
1.1843e-06
1.3937e-06
1.40168e-06
1.4077e-06
1.19246e-06
1.19351e-06
1.19928e-06
1.20034e-06
1.40219e-06
1.40751e-06
1.192e-06
1.18801e-06
1.20189e-06
1.20303e-06
1.18915e-06
1.19903e-06
1.20233e-06
1.39733e-06
1.40944e-06
1.18759e-06
1.20151e-06
1.20322e-06
1.41024e-06
1.41082e-06
1.42067e-06
1.20247e-06
1.20252e-06
1.21603e-06
1.21677e-06
1.41042e-06
1.42321e-06
1.20532e-06
1.20789e-06
1.21446e-06
1.21468e-06
1.20719e-06
1.21921e-06
1.21723e-06
1.41525e-06
1.42181e-06
1.20823e-06
1.21601e-06
1.21603e-06
1.42278e-06
1.42469e-06
1.43151e-06
1.21923e-06
1.22189e-06
1.22656e-06
1.22745e-06
1.42836e-06
1.43117e-06
1.2173e-06
1.21675e-06
1.22881e-06
1.2284e-06
1.21891e-06
1.22582e-06
1.22563e-06
1.42416e-06
1.43222e-06
1.21759e-06
1.22735e-06
1.22743e-06
1.43014e-06
1.43549e-06
1.44314e-06
1.22994e-06
1.22822e-06
1.23876e-06
1.23505e-06
1.4325e-06
1.4364e-06
1.23291e-06
1.23224e-06
1.23921e-06
1.23703e-06
1.22928e-06
1.23395e-06
1.23749e-06
1.4367e-06
1.43944e-06
1.23188e-06
1.23619e-06
1.23865e-06
1.44215e-06
1.44539e-06
1.44629e-06
1.24029e-06
1.23856e-06
1.24531e-06
1.24711e-06
1.44097e-06
1.45098e-06
1.23964e-06
1.23777e-06
1.24261e-06
1.24421e-06
1.23917e-06
1.24856e-06
1.24842e-06
1.44094e-06
1.44642e-06
1.23937e-06
1.24486e-06
1.24581e-06
1.44926e-06
1.44928e-06
1.45645e-06
1.24776e-06
1.24918e-06
1.25471e-06
1.25499e-06
1.45399e-06
1.45662e-06
1.24506e-06
1.24804e-06
1.25397e-06
1.25625e-06
1.25248e-06
1.25366e-06
1.2587e-06
1.45161e-06
1.46029e-06
1.25e-06
1.25782e-06
1.25912e-06
1.46182e-06
1.45975e-06
1.4666e-06
1.25706e-06
1.25706e-06
1.26418e-06
1.26216e-06
1.45915e-06
1.46349e-06
1.25667e-06
1.25724e-06
1.26437e-06
1.26217e-06
1.25893e-06
1.26043e-06
1.26029e-06
1.46214e-06
1.46301e-06
1.2597e-06
1.26079e-06
1.261e-06
1.46152e-06
1.46945e-06
1.46751e-06
1.26539e-06
1.26278e-06
1.26578e-06
1.26293e-06
1.46599e-06
1.46392e-06
1.26576e-06
1.26408e-06
1.26603e-06
1.26603e-06
1.26205e-06
1.26385e-06
1.26639e-06
1.466e-06
1.46786e-06
1.26257e-06
1.26571e-06
1.26652e-06
1.46838e-06
1.46892e-06
1.4749e-06
1.26592e-06
1.26334e-06
1.27246e-06
1.27161e-06
1.4655e-06
1.47419e-06
1.26594e-06
1.26629e-06
1.27012e-06
1.27132e-06
1.26676e-06
1.27021e-06
1.27075e-06
1.46955e-06
1.47536e-06
1.26686e-06
1.27188e-06
1.27098e-06
1.47378e-06
1.4793e-06
1.47733e-06
1.27528e-06
1.27486e-06
1.27587e-06
1.27604e-06
1.47925e-06
1.47931e-06
1.27263e-06
1.27381e-06
1.274e-06
1.27469e-06
1.27334e-06
1.27554e-06
1.27524e-06
1.47976e-06
1.47798e-06
1.27362e-06
1.27549e-06
1.27551e-06
1.47904e-06
1.47778e-06
1.46334e-06
1.2726e-06
1.27309e-06
1.26473e-06
1.26542e-06
1.47986e-06
1.46555e-06
1.27139e-06
1.2719e-06
1.26425e-06
1.26491e-06
1.27302e-06
1.26599e-06
1.26491e-06
1.47844e-06
1.464e-06
1.27326e-06
1.26528e-06
1.26499e-06
1.46464e-06
1.4651e-06
1.48462e-06
1.26444e-06
1.2651e-06
1.27522e-06
1.27545e-06
1.46711e-06
1.48468e-06
1.26408e-06
1.26477e-06
1.27563e-06
1.27661e-06
1.26443e-06
1.27572e-06
1.27409e-06
1.46576e-06
1.48558e-06
1.26447e-06
1.2759e-06
1.27396e-06
1.48228e-06
1.49396e-06
1.52052e-06
1.28258e-06
1.28265e-06
1.30107e-06
1.30138e-06
1.49378e-06
1.52052e-06
1.28315e-06
1.28418e-06
1.30165e-06
1.30255e-06
1.28139e-06
1.30169e-06
1.30132e-06
1.495e-06
1.5217e-06
1.28121e-06
1.30212e-06
1.30106e-06
1.52002e-06
1.52472e-06
1.50469e-06
1.30268e-06
1.30311e-06
1.29091e-06
1.29161e-06
1.52482e-06
1.50507e-06
1.30323e-06
1.30407e-06
1.29135e-06
1.29177e-06
1.30338e-06
1.29195e-06
1.29265e-06
1.52586e-06
1.50527e-06
1.30311e-06
1.29184e-06
1.29243e-06
1.50644e-06
1.50141e-06
1.4272e-06
1.27909e-06
1.27971e-06
1.23357e-06
1.23395e-06
1.5018e-06
1.42724e-06
1.27947e-06
1.27979e-06
1.23367e-06
1.23365e-06
1.2806e-06
1.2339e-06
1.23444e-06
1.5019e-06
1.42688e-06
1.28042e-06
1.23373e-06
1.23436e-06
1.42824e-06
1.42328e-06
1.39023e-06
1.22004e-06
1.22032e-06
1.19896e-06
1.19908e-06
1.42328e-06
1.38996e-06
1.2201e-06
1.22005e-06
1.19897e-06
1.19893e-06
1.22055e-06
1.19877e-06
1.19884e-06
1.42291e-06
1.38971e-06
1.22047e-06
1.1987e-06
1.19872e-06
1.38983e-06
1.39161e-06
1.413e-06
1.19772e-06
1.19782e-06
1.20907e-06
1.20915e-06
1.39133e-06
1.41282e-06
1.19774e-06
1.19771e-06
1.20912e-06
1.20923e-06
1.19752e-06
1.20893e-06
1.20876e-06
1.3911e-06
1.41283e-06
1.19739e-06
1.20886e-06
1.20854e-06
1.41214e-06
1.42405e-06
1.48601e-06
1.21908e-06
1.21919e-06
1.26415e-06
1.26432e-06
1.42392e-06
1.4861e-06
1.21914e-06
1.2193e-06
1.26417e-06
1.26444e-06
1.21884e-06
1.26425e-06
1.2642e-06
1.42396e-06
1.48618e-06
1.21861e-06
1.26418e-06
1.264e-06
1.48577e-06
1.50341e-06
1.57912e-06
1.28199e-06
1.28217e-06
1.3344e-06
1.33456e-06
1.50354e-06
1.57923e-06
1.28199e-06
1.28226e-06
1.33436e-06
1.33459e-06
1.28212e-06
1.33449e-06
1.33462e-06
1.5036e-06
1.57929e-06
1.28193e-06
1.33445e-06
1.33447e-06
1.5793e-06
1.59481e-06
1.62971e-06
1.34854e-06
1.34867e-06
1.37005e-06
1.3701e-06
1.59491e-06
1.62972e-06
1.34849e-06
1.3487e-06
1.36997e-06
1.37009e-06
1.34876e-06
1.37003e-06
1.37022e-06
1.59496e-06
1.62976e-06
1.34862e-06
1.37004e-06
1.37012e-06
1.62998e-06
1.63272e-06
1.58347e-06
1.37026e-06
1.37031e-06
1.34102e-06
1.341e-06
1.63272e-06
1.58338e-06
1.37018e-06
1.37029e-06
1.34091e-06
1.34098e-06
1.37042e-06
1.34093e-06
1.3411e-06
1.63275e-06
1.58343e-06
1.37033e-06
1.34099e-06
1.34105e-06
1.58366e-06
1.57641e-06
1.4691e-06
1.32296e-06
1.32293e-06
1.25897e-06
1.25893e-06
1.57632e-06
1.46901e-06
1.32285e-06
1.32291e-06
1.25886e-06
1.25895e-06
1.32303e-06
1.25888e-06
1.25902e-06
1.57637e-06
1.4691e-06
1.32298e-06
1.25895e-06
1.25898e-06
1.46922e-06
1.4619e-06
1.38528e-06
1.23942e-06
1.23938e-06
1.19246e-06
1.19244e-06
1.46182e-06
1.3852e-06
1.23931e-06
1.23941e-06
1.19235e-06
1.19247e-06
1.23947e-06
1.19238e-06
1.19252e-06
1.4619e-06
1.3853e-06
1.23943e-06
1.19244e-06
1.19245e-06
1.38535e-06
1.38267e-06
1.35534e-06
1.18129e-06
1.18128e-06
1.15988e-06
1.1599e-06
1.38261e-06
1.35529e-06
1.18118e-06
1.18131e-06
1.15978e-06
1.15992e-06
1.18135e-06
1.15981e-06
1.15995e-06
1.38269e-06
1.35538e-06
1.18127e-06
1.15986e-06
1.15986e-06
1.3554e-06
1.35625e-06
1.36043e-06
1.1562e-06
1.15622e-06
1.15225e-06
1.15229e-06
1.35621e-06
1.36039e-06
1.1561e-06
1.15624e-06
1.15216e-06
1.15231e-06
1.15626e-06
1.15218e-06
1.15232e-06
1.35629e-06
1.36048e-06
1.15617e-06
1.15223e-06
1.15223e-06
1.3605e-06
1.36515e-06
1.3774e-06
1.1528e-06
1.15284e-06
1.15585e-06
1.1559e-06
1.36512e-06
1.37736e-06
1.15271e-06
1.15286e-06
1.15577e-06
1.15592e-06
1.15287e-06
1.15578e-06
1.15593e-06
1.3652e-06
1.37745e-06
1.15278e-06
1.15584e-06
1.15584e-06
1.37748e-06
1.38164e-06
1.38798e-06
1.1561e-06
1.15615e-06
1.15535e-06
1.1554e-06
1.3816e-06
1.38793e-06
1.15602e-06
1.15617e-06
1.15528e-06
1.15542e-06
1.15618e-06
1.15528e-06
1.15543e-06
1.38168e-06
1.38801e-06
1.15609e-06
1.15534e-06
1.15535e-06
1.38805e-06
1.39078e-06
1.39197e-06
1.15487e-06
1.15491e-06
1.15257e-06
1.15261e-06
1.39073e-06
1.39192e-06
1.15479e-06
1.15494e-06
1.15249e-06
1.15264e-06
1.15495e-06
1.15249e-06
1.15265e-06
1.39081e-06
1.39201e-06
1.15486e-06
1.15255e-06
1.15256e-06
1.39204e-06
1.39406e-06
1.39336e-06
1.15222e-06
1.15226e-06
1.15075e-06
1.15079e-06
1.39402e-06
1.39331e-06
1.15214e-06
1.15229e-06
1.15067e-06
1.15082e-06
1.1523e-06
1.15067e-06
1.15083e-06
1.39409e-06
1.39339e-06
1.15221e-06
1.15074e-06
1.15075e-06
1.39343e-06
1.39523e-06
1.39358e-06
1.1506e-06
1.15064e-06
1.14986e-06
1.1499e-06
1.39519e-06
1.39353e-06
1.15052e-06
1.15067e-06
1.14978e-06
1.14993e-06
1.15068e-06
1.14977e-06
1.14994e-06
1.39526e-06
1.39362e-06
1.1506e-06
1.14984e-06
1.14985e-06
1.39366e-06
1.39541e-06
1.3934e-06
1.14982e-06
1.14986e-06
1.14939e-06
1.14942e-06
1.39536e-06
1.39335e-06
1.14974e-06
1.14989e-06
1.1493e-06
1.14945e-06
1.1499e-06
1.1493e-06
1.14947e-06
1.39544e-06
1.39343e-06
1.14981e-06
1.14937e-06
1.14938e-06
1.39347e-06
1.39516e-06
1.3933e-06
1.14943e-06
1.14947e-06
1.14919e-06
1.14923e-06
1.39511e-06
1.39325e-06
1.14935e-06
1.1495e-06
1.14911e-06
1.14926e-06
1.14951e-06
1.14911e-06
1.14927e-06
1.39519e-06
1.39334e-06
1.14942e-06
1.14918e-06
1.14918e-06
1.39338e-06
1.39513e-06
1.39331e-06
1.14935e-06
1.14938e-06
1.14881e-06
1.14885e-06
1.39509e-06
1.39326e-06
1.14926e-06
1.14941e-06
1.14872e-06
1.14887e-06
1.14942e-06
1.14872e-06
1.14888e-06
1.39516e-06
1.39334e-06
1.14933e-06
1.14878e-06
1.14879e-06
1.39337e-06
1.39501e-06
1.37464e-06
1.14908e-06
1.14912e-06
1.12891e-06
1.12894e-06
1.39497e-06
1.37463e-06
1.14899e-06
1.14914e-06
1.12889e-06
1.1289e-06
1.14916e-06
1.12893e-06
1.12896e-06
1.39504e-06
1.37466e-06
1.14906e-06
1.12892e-06
1.12893e-06
1.37468e-06
1.35353e-06
1.09515e-06
1.09518e-06
1.35353e-06
1.09515e-06
1.09514e-06
6.47643e-07
6.47612e-07
6.47652e-07
1.0952e-06
1.35354e-06
1.09519e-06
7.04655e-09
2.57068e-09
4.2858e-09
4.27585e-09
1.63005e-09
4.38798e-09
1.01043e-08
2.39442e-09
1.60892e-09
4.00457e-09
2.45059e-09
5.59799e-09
5.34465e-09
3.56391e-09
3.81114e-09
7.49321e-09
1.63407e-07
6.06186e-09
2.59235e-07
1.50347e-06
3.00881e-06
7.73766e-09
1.64056e-07
6.56474e-09
2.59592e-07
3.01022e-09
2.97432e-09
3.15738e-09
3.01299e-09
2.99373e-09
2.95051e-09
3.13813e-09
1.60098e-09
8.39789e-08
2.00925e-09
4.55377e-09
1.62724e-09
6.23234e-08
1.98285e-09
1.63148e-06
3.20932e-06
1.5447e-09
1.72442e-09
8.58562e-08
3.33821e-09
1.57199e-09
1.71081e-09
6.16431e-08
2.14735e-07
2.15367e-07
4.91462e-09
1.83583e-07
1.84611e-07
1.6859e-08
4.65137e-07
1.23214e-08
6.7284e-07
6.87317e-06
9.85555e-06
1.68155e-08
4.66248e-07
1.30302e-08
6.74318e-07
2.9827e-09
2.93923e-09
3.12563e-09
2.96359e-09
2.95034e-09