/*--------------------------------*- C++ -*----------------------------------*\
| =========                 |                                                 |
| \\      /  F ield         | OpenFOAM: The Open Source CFD Toolbox           |
|  \\    /   O peration     | Version:  v1906                                 |
|   \\  /    A nd           | Web:      www.OpenFOAM.com                      |
|    \\/     M anipulation  |                                                 |
\*---------------------------------------------------------------------------*/
FoamFile
{
    version     2.0;
    format      ascii;
    class       volScalarField;
    location    "337.5";
    object      k;
}
// * * * * * * * * * * * * * * * * * * * * * * * * * * * * * * * * * * * * * //

dimensions      [0 2 -2 0 0 0 0];


internalField   nonuniform List<scalar> 
171728
(
4.50006e-07
3.33419e-07
2.9073e-07
3.5839e-07
4.45043e-07
3.16115e-07
2.72812e-07
3.39522e-07
4.4486e-07
3.00259e-07
2.59098e-07
3.21669e-07
4.45033e-07
2.86299e-07
2.4668e-07
3.05456e-07
4.45684e-07
2.73745e-07
2.3481e-07
2.91394e-07
4.46669e-07
2.63068e-07
2.24174e-07
2.78741e-07
4.4821e-07
2.54146e-07
2.13401e-07
2.68099e-07
4.50325e-07
2.46202e-07
2.05178e-07
2.59212e-07
4.5301e-07
2.38735e-07
1.99693e-07
2.52382e-07
4.56112e-07
2.32305e-07
1.96788e-07
2.48056e-07
4.59515e-07
2.27232e-07
1.94909e-07
2.4687e-07
4.63418e-07
2.24057e-07
1.93477e-07
2.49737e-07
4.67775e-07
2.20477e-07
1.91609e-07
2.54192e-07
4.72432e-07
2.18507e-07
1.91949e-07
2.5347e-07
4.77772e-07
2.19941e-07
1.94266e-07
2.26083e-07
4.82732e-07
2.2481e-07
2.00387e-07
2.10721e-07
4.88218e-07
2.35391e-07
2.11061e-07
2.11363e-07
4.93656e-07
2.519e-07
2.34269e-07
2.27644e-07
5.00114e-07
2.813e-07
2.70159e-07
2.61882e-07
5.05854e-07
3.25537e-07
3.21534e-07
3.35852e-07
5.12744e-07
4.04194e-07
4.29003e-07
4.73319e-07
5.20222e-07
5.02934e-07
5.70781e-07
6.57553e-07
5.28185e-07
6.91399e-07
8.04385e-07
1.04155e-06
5.37611e-07
9.28926e-07
1.08962e-06
1.84404e-06
5.49073e-07
1.23549e-06
1.33928e-06
2.50753e-06
5.64678e-07
1.60122e-06
1.71167e-06
4.11667e-06
5.7911e-07
2.2211e-06
2.34523e-06
5.52034e-06
6.05518e-07
2.77948e-06
2.77755e-06
7.71366e-06
6.28873e-07
3.5265e-06
3.58232e-06
1.01941e-05
6.7663e-07
4.51772e-06
4.4919e-06
1.25475e-05
7.11312e-07
5.22802e-06
5.33395e-06
1.50858e-05
7.88585e-07
6.65249e-06
6.52869e-06
1.75141e-05
8.62781e-07
7.79884e-06
7.82998e-06
1.96148e-05
9.66751e-07
9.16485e-06
9.09568e-06
2.18349e-05
1.13585e-06
1.05846e-05
1.05509e-05
2.35245e-05
1.23348e-06
1.27261e-05
1.22968e-05
2.53051e-05
1.59767e-06
1.3722e-05
1.3519e-05
2.67811e-05
1.68615e-06
1.5095e-05
1.57881e-05
2.8034e-05
2.15677e-06
1.78189e-05
1.75012e-05
2.95884e-05
2.4251e-06
1.87054e-05
1.86759e-05
3.0709e-05
3.24536e-06
2.11466e-05
2.18176e-05
3.19517e-05
3.38593e-06
2.23962e-05
2.30878e-05
3.30946e-05
4.38103e-06
2.52877e-05
2.38469e-05
3.43243e-05
4.93801e-06
2.60509e-05
2.66226e-05
3.4975e-05
5.85323e-06
2.73087e-05
2.82417e-05
3.67625e-05
6.70917e-06
3.08736e-05
2.99954e-05
3.78713e-05
8.04985e-06
3.15028e-05
3.09731e-05
3.81224e-05
8.50053e-06
3.28695e-05
3.31346e-05
3.98265e-05
1.06495e-05
3.3906e-05
3.42872e-05
4.06944e-05
1.13e-05
3.62173e-05
3.58389e-05
4.15326e-05
1.33301e-05
3.69761e-05
3.74076e-05
4.26721e-05
1.4276e-05
3.77002e-05
3.7688e-05
4.31349e-05
1.57082e-05
4.02285e-05
3.98187e-05
4.48277e-05
1.83735e-05
4.09466e-05
4.10621e-05
4.53876e-05
1.87865e-05
4.09992e-05
4.11805e-05
4.54949e-05
2.0467e-05
4.29008e-05
4.29601e-05
4.70132e-05
2.2356e-05
4.3651e-05
4.35939e-05
4.7477e-05
2.39603e-05
4.48454e-05
4.47877e-05
4.82883e-05
2.44701e-05
4.52271e-05
4.53076e-05
4.86807e-05
2.66551e-05
4.63921e-05
4.65597e-05
4.97809e-05
2.78141e-05
4.73519e-05
4.72579e-05
4.9979e-05
2.90685e-05
4.77496e-05
4.76839e-05
5.07435e-05
3.03797e-05
4.89364e-05
4.88449e-05
5.14982e-05
3.14946e-05
4.95547e-05
4.94112e-05
5.17237e-05
3.3046e-05
4.9612e-05
5.01157e-05
5.24894e-05
3.37494e-05
5.08157e-05
5.02476e-05
5.26882e-05
3.47173e-05
5.12611e-05
5.1479e-05
5.36344e-05
3.588e-05
5.17065e-05
5.16621e-05
5.36179e-05
3.69956e-05
5.21287e-05
5.21872e-05
5.4119e-05
3.74288e-05
5.23482e-05
5.25437e-05
5.4329e-05
3.86502e-05
5.33227e-05
5.33205e-05
5.51568e-05
3.92427e-05
5.29903e-05
5.29037e-05
5.44652e-05
3.92202e-05
5.29301e-05
5.28721e-05
5.45724e-05
4.12421e-05
5.54102e-05
5.5459e-05
5.71102e-05
4.33743e-05
5.64371e-05
5.64636e-05
5.81402e-05
4.27254e-05
5.38736e-05
5.38602e-05
5.50445e-05
3.91087e-05
5.06162e-05
5.06051e-05
5.1925e-05
3.7624e-05
5.00484e-05
5.00394e-05
5.18121e-05
3.95542e-05
5.28793e-05
5.28748e-05
5.46398e-05
4.49485e-05
5.7452e-05
5.74481e-05
5.90528e-05
4.91203e-05
6.11162e-05
6.11136e-05
6.27418e-05
5.04198e-05
6.17102e-05
6.17087e-05
6.29196e-05
4.72438e-05
5.69595e-05
5.69601e-05
5.79101e-05
4.17718e-05
5.23457e-05
5.23462e-05
5.35012e-05
3.87609e-05
5.02819e-05
5.0282e-05
5.16796e-05
3.83054e-05
5.02522e-05
5.0252e-05
5.20086e-05
4.01938e-05
5.15782e-05
5.15782e-05
5.32551e-05
4.13321e-05
5.20503e-05
5.20506e-05
5.38209e-05
4.1627e-05
5.20706e-05
5.20707e-05
5.39464e-05
4.16829e-05
5.20216e-05
5.20219e-05
5.39688e-05
4.16872e-05
5.19866e-05
5.19869e-05
5.39657e-05
4.16715e-05
5.19576e-05
5.19578e-05
5.39483e-05
4.1657e-05
5.19454e-05
5.19456e-05
5.39319e-05
4.16457e-05
5.19296e-05
5.19294e-05
5.39382e-05
4.12676e-05
5.08632e-05
5.0862e-05
5.36202e-05
3.72305e-07
3.60818e-07
3.23084e-07
3.4862e-07
3.47811e-07
3.60157e-07
4.55619e-07
4.52482e-07
4.53174e-07
4.59023e-07
3.34821e-07
3.34579e-07
3.70912e-07
3.41867e-07
3.43352e-07
3.59491e-07
3.7122e-07
3.52975e-07
3.45613e-07
3.33807e-07
3.323e-07
3.30667e-07
3.47213e-07
3.31817e-07
3.39635e-07
3.52682e-07
3.26123e-07
3.38604e-07
3.37567e-07
3.20415e-07
3.25527e-07
3.70133e-07
3.51736e-07
3.41764e-07
2.76604e-07
3.2797e-07
3.40926e-07
3.51645e-07
3.35066e-07
3.27808e-07
3.30106e-07
3.15337e-07
3.27711e-07
3.29348e-07
3.16176e-07
3.21655e-07
3.33952e-07
3.09133e-07
3.21203e-07
3.21207e-07
3.04068e-07
3.0891e-07
3.50457e-07
3.32979e-07
3.23455e-07
2.6233e-07
3.11082e-07
3.22914e-07
3.33882e-07
3.19078e-07
3.11299e-07
3.26117e-07
3.0006e-07
3.18313e-07
3.1377e-07
3.0187e-07
3.05116e-07
3.17121e-07
2.93922e-07
3.0572e-07
3.05563e-07
2.89724e-07
2.96551e-07
3.31834e-07
3.16435e-07
3.07142e-07
2.4967e-07
2.95605e-07
3.07231e-07
3.17978e-07
3.04282e-07
2.96455e-07
3.15257e-07
2.86393e-07
3.06107e-07
2.994e-07
2.88486e-07
2.90339e-07
3.0209e-07
2.80419e-07
2.917e-07
2.93498e-07
2.76831e-07
2.84312e-07
3.15394e-07
3.01175e-07
2.91826e-07
2.37713e-07
2.81316e-07
2.93284e-07
3.03239e-07
2.90525e-07
2.83142e-07
3.02587e-07
2.73885e-07
2.88668e-07
2.8624e-07
2.76294e-07
2.77271e-07
2.88312e-07
2.68466e-07
2.78951e-07
2.81866e-07
2.65554e-07
2.76503e-07
3.00177e-07
2.86728e-07
2.78174e-07
2.26847e-07
2.70061e-07
2.8067e-07
2.89562e-07
2.7801e-07
2.71004e-07
2.83693e-07
2.62892e-07
2.68207e-07
2.74859e-07
2.65731e-07
2.65745e-07
2.75942e-07
2.58027e-07
2.67583e-07
2.7515e-07
2.5618e-07
2.73445e-07
2.85787e-07
2.73302e-07
2.67563e-07
2.15949e-07
2.60578e-07
2.69721e-07
2.77156e-07
2.66916e-07
2.60381e-07
2.63011e-07
2.53574e-07
2.48873e-07
2.6492e-07
2.5587e-07
2.55581e-07
2.64998e-07
2.48792e-07
2.57615e-07
2.73447e-07
2.48275e-07
2.73954e-07
2.72491e-07
2.62001e-07
2.58004e-07
2.06929e-07
2.50231e-07
2.60643e-07
2.66171e-07
2.56984e-07
2.51428e-07
2.4497e-07
2.45345e-07
2.35811e-07
2.55155e-07
2.45986e-07
2.46682e-07
2.55342e-07
2.40606e-07
2.48773e-07
2.74574e-07
2.40417e-07
2.78873e-07
2.61401e-07
2.52402e-07
2.47837e-07
2.00825e-07
2.41431e-07
2.53421e-07
2.56351e-07
2.47705e-07
2.43565e-07
2.33341e-07
2.38513e-07
2.27547e-07
2.45288e-07
2.36726e-07
2.38715e-07
2.4675e-07
2.33709e-07
2.41103e-07
2.80292e-07
2.33857e-07
2.87948e-07
2.51888e-07
2.42838e-07
2.39413e-07
1.97348e-07
2.34444e-07
2.48672e-07
2.47103e-07
2.38457e-07
2.36879e-07
2.25984e-07
2.32712e-07
2.21874e-07
2.36083e-07
2.27995e-07
2.32236e-07
2.39255e-07
2.27847e-07
2.3421e-07
2.91087e-07
2.28231e-07
2.99027e-07
2.42388e-07
2.33772e-07
2.33062e-07
1.95361e-07
2.28395e-07
2.468e-07
2.37934e-07
2.30238e-07
2.31374e-07
2.2062e-07
2.27461e-07
2.17427e-07
2.27462e-07
2.20657e-07
2.26463e-07
2.3266e-07
2.22908e-07
2.28416e-07
3.02656e-07
2.24856e-07
3.23758e-07
2.33393e-07
2.25457e-07
2.26728e-07
1.93864e-07
2.22646e-07
2.48823e-07
2.29857e-07
2.23426e-07
2.26172e-07
2.16476e-07
2.2326e-07
2.14048e-07
2.20333e-07
2.14699e-07
2.21942e-07
2.27197e-07
2.19082e-07
2.24356e-07
3.33373e-07
2.21449e-07
3.58788e-07
2.25172e-07
2.17972e-07
2.21726e-07
1.92057e-07
2.20034e-07
2.53686e-07
2.23271e-07
2.18587e-07
2.22559e-07
2.13528e-07
2.21137e-07
2.12473e-07
2.1454e-07
2.09943e-07
2.18382e-07
2.23632e-07
2.16784e-07
2.22436e-07
3.63786e-07
2.1856e-07
3.66891e-07
2.17843e-07
2.12052e-07
2.19992e-07
1.91696e-07
2.20272e-07
2.53902e-07
2.1872e-07
2.16107e-07
2.20861e-07
2.12453e-07
2.21188e-07
2.13108e-07
2.10056e-07
2.07595e-07
2.1646e-07
2.224e-07
2.16806e-07
2.2311e-07
3.63586e-07
2.1927e-07
3.01136e-07
2.12185e-07
2.08755e-07
2.20301e-07
1.93615e-07
2.20075e-07
2.27652e-07
2.16704e-07
2.16788e-07
2.2152e-07
2.13597e-07
2.23867e-07
2.16597e-07
2.08193e-07
2.08498e-07
2.17339e-07
2.23791e-07
2.19971e-07
2.27142e-07
2.7912e-07
2.23468e-07
2.29901e-07
2.0932e-07
2.08916e-07
2.20213e-07
1.98345e-07
2.22437e-07
2.10346e-07
2.18309e-07
2.22256e-07
2.25287e-07
2.17928e-07
2.31216e-07
2.25258e-07
2.09875e-07
2.15073e-07
2.21842e-07
2.28558e-07
2.27787e-07
2.34674e-07
2.17802e-07
2.32283e-07
1.9894e-07
2.10388e-07
2.13909e-07
2.23405e-07
2.07673e-07
2.28924e-07
2.08216e-07
2.25488e-07
2.36443e-07
2.34373e-07
2.2842e-07
2.45623e-07
2.39684e-07
2.1885e-07
2.2791e-07
2.31297e-07
2.37814e-07
2.42381e-07
2.48036e-07
1.98934e-07
2.46601e-07
2.05171e-07
2.17333e-07
2.27645e-07
2.3144e-07
2.26743e-07
2.44356e-07
2.20844e-07
2.42485e-07
2.67249e-07
2.51051e-07
2.45391e-07
2.70957e-07
2.66065e-07
2.34478e-07
2.59761e-07
2.48039e-07
2.54474e-07
2.68319e-07
2.71787e-07
2.10579e-07
2.71384e-07
2.32938e-07
2.34352e-07
2.5921e-07
2.48543e-07
2.59711e-07
2.69007e-07
2.49162e-07
2.78083e-07
3.27233e-07
2.80217e-07
2.76306e-07
3.11733e-07
3.07042e-07
2.72022e-07
3.20738e-07
2.77205e-07
2.82369e-07
3.08564e-07
3.14618e-07
2.40943e-07
3.11368e-07
2.75764e-07
2.70272e-07
3.23275e-07
2.77107e-07
3.03352e-07
3.13335e-07
3.12346e-07
3.45333e-07
4.55201e-07
3.24772e-07
3.20717e-07
3.85355e-07
3.78602e-07
3.38417e-07
4.49843e-07
3.21869e-07
3.25224e-07
3.82976e-07
3.90858e-07
2.8874e-07
3.8216e-07
3.49847e-07
3.40147e-07
4.53108e-07
3.24798e-07
3.92197e-07
3.84202e-07
4.21298e-07
4.89677e-07
6.34368e-07
3.9899e-07
4.00741e-07
4.8531e-07
4.74481e-07
4.84213e-07
6.51858e-07
3.95312e-07
4.10674e-07
4.84409e-07
4.81258e-07
3.72437e-07
4.7842e-07
4.47069e-07
4.95622e-07
6.42049e-07
4.06544e-07
5.28667e-07
4.77883e-07
5.96877e-07
7.30876e-07
9.96019e-07
5.25448e-07
4.99691e-07
6.32652e-07
6.55098e-07
7.07148e-07
1.03679e-06
5.25123e-07
5.20566e-07
6.27025e-07
6.43283e-07
4.95083e-07
6.56099e-07
5.86548e-07
7.0487e-07
1.06741e-06
5.26536e-07
7.73305e-07
6.12199e-07
9.98902e-07
1.07496e-06
1.55991e-06
6.72476e-07
6.91057e-07
8.52319e-07
8.36452e-07
1.18322e-06
1.4355e-06
6.67122e-07
6.8466e-07
8.49045e-07
8.5373e-07
6.32613e-07
8.35848e-07
8.53069e-07
1.16047e-06
1.56805e-06
6.56058e-07
9.75458e-07
8.77279e-07
1.68055e-06
1.73897e-06
2.42007e-06
9.17511e-07
9.29559e-07
1.15469e-06
1.14725e-06
1.5916e-06
2.59727e-06
9.15264e-07
9.22496e-07
1.15657e-06
1.14877e-06
8.9272e-07
1.14251e-06
1.1088e-06
1.73023e-06
2.54083e-06
9.1381e-07
1.27513e-06
1.11804e-06
2.234e-06
2.6258e-06
3.69305e-06
1.22805e-06
1.24274e-06
1.55909e-06
1.51584e-06
2.71268e-06
3.70008e-06
1.23419e-06
1.23588e-06
1.54675e-06
1.56077e-06
1.24438e-06
1.51391e-06
1.53046e-06
2.73699e-06
3.63855e-06
1.25147e-06
1.63899e-06
1.5507e-06
3.93497e-06
3.94837e-06
5.36156e-06
1.6983e-06
1.6037e-06
1.96553e-06
2.08754e-06
4.01186e-06
5.21405e-06
1.6913e-06
1.64186e-06
1.95938e-06
2.02165e-06
1.60446e-06
2.07365e-06
2.02052e-06
3.94927e-06
5.15972e-06
1.62208e-06
2.12774e-06
2.01785e-06
5.06884e-06
5.65012e-06
7.27001e-06
2.08727e-06
2.22883e-06
2.73507e-06
2.60549e-06
5.74624e-06
7.33228e-06
2.08198e-06
2.21432e-06
2.72603e-06
2.62637e-06
2.17423e-06
2.58154e-06
2.60747e-06
5.51795e-06
7.67588e-06
2.17275e-06
2.6661e-06
2.61336e-06
7.34374e-06
7.98888e-06
9.55232e-06
2.90727e-06
2.8101e-06
3.2613e-06
3.38142e-06
7.53176e-06
9.87243e-06
2.87797e-06
2.7445e-06
3.2795e-06
3.41445e-06
2.78545e-06
3.37624e-06
3.36682e-06
7.96443e-06
9.37266e-06
2.78622e-06
3.44214e-06
3.36246e-06
9.67941e-06
9.71128e-06
1.24263e-05
3.45894e-06
3.53426e-06
4.32022e-06
4.23125e-06
1.03956e-05
1.19835e-05
3.4843e-06
3.60996e-06
4.28194e-06
4.12784e-06
3.56266e-06
4.19823e-06
4.18368e-06
1.00478e-05
1.21141e-05
3.58302e-06
4.19155e-06
4.13799e-06
1.20491e-05
1.30647e-05
1.45506e-05
4.56384e-06
4.53738e-06
5.06458e-06
5.05973e-06
1.2552e-05
1.45932e-05
4.53578e-06
4.43284e-06
5.06306e-06
5.21074e-06
4.41126e-06
5.04464e-06
5.19593e-06
1.25137e-05
1.46837e-05
4.36483e-06
5.15183e-06
5.19298e-06
1.45793e-05
1.50547e-05
1.68185e-05
5.30313e-06
5.25993e-06
6.35717e-06
6.3666e-06
1.49703e-05
1.69086e-05
5.2974e-06
5.37453e-06
6.34399e-06
6.24529e-06
5.4516e-06
6.3328e-06
6.26428e-06
1.52431e-05
1.67014e-05
5.43352e-06
6.19057e-06
6.25003e-06
1.70469e-05
1.74173e-05
1.93417e-05
6.67223e-06
6.67454e-06
7.42871e-06
7.40354e-06
1.74589e-05
1.9519e-05
6.64958e-06
6.61152e-06
7.40254e-06
7.50185e-06
6.59477e-06
7.40304e-06
7.34974e-06
1.71347e-05
1.95549e-05
6.56418e-06
7.54754e-06
7.36619e-06
1.91281e-05
1.96482e-05
2.12131e-05
7.70904e-06
7.81094e-06
8.74377e-06
9.04191e-06
2.00186e-05
2.10881e-05
7.70798e-06
7.80972e-06
8.74425e-06
8.80298e-06
7.64608e-06
8.99221e-06
9.09621e-06
2.0032e-05
2.10844e-05
7.6876e-06
8.69191e-06
8.94296e-06
2.14283e-05
2.1811e-05
2.31969e-05
9.18104e-06
9.21341e-06
1.04175e-05
9.85895e-06
2.15264e-05
2.30687e-05
9.12076e-06
9.12609e-06
1.04465e-05
1.02835e-05
9.40793e-06
9.83866e-06
9.99973e-06
2.15336e-05
2.32149e-05
9.26721e-06
1.02232e-05
1.00569e-05
2.31173e-05
2.35382e-05
2.48183e-05
1.06712e-05
1.0615e-05
1.15388e-05
1.25305e-05
2.35225e-05
2.54211e-05
1.08059e-05
1.06742e-05
1.14741e-05
1.17863e-05
1.04722e-05
1.25078e-05
1.19672e-05
2.36045e-05
2.48856e-05
1.04941e-05
1.18289e-05
1.18797e-05
2.48554e-05
2.51889e-05
2.66123e-05
1.20902e-05
1.27454e-05
1.39196e-05
1.32377e-05
2.57158e-05
2.61365e-05
1.18933e-05
1.22527e-05
1.3836e-05
1.34534e-05
1.22563e-05
1.32081e-05
1.35235e-05
2.52854e-05
2.62541e-05
1.2187e-05
1.32808e-05
1.34696e-05
2.64692e-05
2.69602e-05
2.75692e-05
1.42543e-05
1.37263e-05
1.46377e-05
1.47308e-05
2.64212e-05
2.77756e-05
1.42596e-05
1.36674e-05
1.47677e-05
1.48264e-05
1.40858e-05
1.4694e-05
1.49583e-05
2.65516e-05
2.78405e-05
1.40152e-05
1.50077e-05
1.48989e-05
2.77088e-05
2.78402e-05
2.91394e-05
1.49544e-05
1.52157e-05
1.7117e-05
1.73019e-05
2.81231e-05
2.92549e-05
1.51917e-05
1.55498e-05
1.69092e-05
1.75356e-05
1.51645e-05
1.72428e-05
1.69886e-05
2.83206e-05
2.93029e-05
1.51287e-05
1.73644e-05
1.69512e-05
2.91779e-05
2.95219e-05
3.04503e-05
1.74301e-05
1.77109e-05
1.84163e-05
1.82993e-05
2.9608e-05
3.0359e-05
1.72305e-05
1.78363e-05
1.8408e-05
1.8141e-05
1.77655e-05
1.84343e-05
1.89048e-05
2.94739e-05
3.00274e-05
1.77068e-05
1.80625e-05
1.88464e-05
3.0497e-05
3.07776e-05
3.1871e-05
1.91088e-05
1.88786e-05
2.11782e-05
2.0902e-05
3.06333e-05
3.16158e-05
1.9121e-05
1.83647e-05
2.11847e-05
2.09829e-05
1.90097e-05
2.0788e-05
2.05328e-05
3.04349e-05
3.21102e-05
1.89492e-05
2.10995e-05
2.03439e-05
3.15591e-05
3.20913e-05
3.24901e-05
2.15067e-05
2.11874e-05
2.18303e-05
2.16922e-05
3.18319e-05
3.26266e-05
2.15121e-05
2.17484e-05
2.181e-05
2.27009e-05
2.12916e-05
2.17847e-05
2.2193e-05
3.24231e-05
3.28717e-05
2.11845e-05
2.29881e-05
2.24466e-05
3.28501e-05
3.27058e-05
3.42021e-05
2.20978e-05
2.22923e-05
2.46027e-05
2.47292e-05
3.3091e-05
3.44705e-05
2.20513e-05
2.27582e-05
2.42847e-05
2.35241e-05
2.24386e-05
2.47064e-05
2.44801e-05
3.2999e-05
3.35907e-05
2.2589e-05
2.33491e-05
2.42362e-05
3.40639e-05
3.44763e-05
3.50722e-05
2.49366e-05
2.53455e-05
2.59241e-05
2.61788e-05
3.46434e-05
3.47379e-05
2.45953e-05
2.44762e-05
2.59231e-05
2.59589e-05
2.50618e-05
2.60113e-05
2.56811e-05
3.39814e-05
3.52472e-05
2.48606e-05
2.63265e-05
2.55773e-05
3.47642e-05
3.53385e-05
3.60923e-05
2.64561e-05
2.62303e-05
2.72955e-05
2.65114e-05
3.48428e-05
3.57009e-05
2.66069e-05
2.61158e-05
2.7753e-05
2.74636e-05
2.57986e-05
2.64447e-05
2.75089e-05
3.54377e-05
3.61682e-05
2.58373e-05
2.75997e-05
2.75885e-05
3.63735e-05
3.62779e-05
3.74079e-05
2.76222e-05
2.71407e-05
2.96273e-05
3.02517e-05
3.61821e-05
3.80619e-05
2.78588e-05
2.82272e-05
2.91722e-05
2.98219e-05
2.83584e-05
3.0333e-05
3.02563e-05
3.65034e-05
3.7507e-05
2.83476e-05
2.98285e-05
3.00959e-05
3.77296e-05
3.77667e-05
3.83575e-05
3.02662e-05
3.08918e-05
3.10241e-05
3.16915e-05
3.83003e-05
3.86362e-05
2.99449e-05
2.99673e-05
3.12318e-05
3.05002e-05
3.05262e-05
3.14435e-05
3.06998e-05
3.76399e-05
3.80234e-05
3.03357e-05
3.05034e-05
3.05265e-05
3.80037e-05
3.84561e-05
3.91965e-05
3.10812e-05
3.17364e-05
3.21526e-05
3.22321e-05
3.87296e-05
3.92914e-05
3.13288e-05
3.10299e-05
3.20825e-05
3.26328e-05
3.07518e-05
3.25054e-05
3.23149e-05
3.83118e-05
3.95818e-05
3.06476e-05
3.26109e-05
3.24456e-05
3.94536e-05
3.95817e-05
4.06024e-05
3.29576e-05
3.27634e-05
3.44701e-05
3.37238e-05
3.95711e-05
4.01736e-05
3.27675e-05
3.31251e-05
3.41604e-05
3.41013e-05
3.30572e-05
3.3504e-05
3.42696e-05
3.98275e-05
4.04186e-05
3.31266e-05
3.41047e-05
3.43241e-05
4.05802e-05
4.07494e-05
4.13298e-05
3.46131e-05
3.40682e-05
3.50816e-05
3.56182e-05
4.04021e-05
4.17187e-05
3.43559e-05
3.42909e-05
3.52317e-05
3.5282e-05
3.43987e-05
3.56931e-05
3.51598e-05
4.05719e-05
4.14541e-05
3.44552e-05
3.5311e-05
3.50729e-05
4.12644e-05
4.16037e-05
4.25305e-05
3.56171e-05
3.61233e-05
3.70766e-05
3.68869e-05
4.19778e-05
4.22614e-05
3.57463e-05
3.58039e-05
3.71197e-05
3.71972e-05
3.56691e-05
3.69379e-05
3.71187e-05
4.17653e-05
4.26416e-05
3.55361e-05
3.71891e-05
3.70495e-05
4.25294e-05
4.26508e-05
4.29149e-05
3.72911e-05
3.69368e-05
3.7529e-05
3.72383e-05
4.22978e-05
4.27897e-05
3.73289e-05
3.74347e-05
3.75486e-05
3.76465e-05
3.7357e-05
3.72204e-05
3.75964e-05
4.27399e-05
4.28504e-05
3.73364e-05
3.76006e-05
3.76497e-05
4.29698e-05
4.30947e-05
4.45773e-05
3.77351e-05
3.77546e-05
3.95165e-05
3.97265e-05
4.31629e-05
4.48357e-05
3.77193e-05
3.77319e-05
3.94073e-05
3.91993e-05
3.77484e-05
3.97161e-05
3.93683e-05
4.29746e-05
4.44006e-05
3.78369e-05
3.91789e-05
3.93449e-05
4.4509e-05
4.48687e-05
4.52116e-05
4.00458e-05
4.02345e-05
4.07824e-05
4.09214e-05
4.50834e-05
4.53337e-05
3.99708e-05
3.98361e-05
4.08131e-05
4.09349e-05
3.99545e-05
4.09273e-05
4.0942e-05
4.47637e-05
4.53975e-05
3.99165e-05
4.09588e-05
4.09191e-05
4.53532e-05
4.52301e-05
4.539e-05
4.08138e-05
4.09385e-05
4.0895e-05
4.08999e-05
4.53458e-05
4.5199e-05
4.08566e-05
4.10244e-05
4.0987e-05
4.10947e-05
4.10147e-05
4.09223e-05
4.10317e-05
4.54385e-05
4.54246e-05
4.09973e-05
4.11133e-05
4.10264e-05
4.53253e-05
4.57007e-05
4.6714e-05
4.11935e-05
4.09608e-05
4.25235e-05
4.26974e-05
4.53773e-05
4.69278e-05
4.13223e-05
4.12127e-05
4.22718e-05
4.24062e-05
4.11001e-05
4.26173e-05
4.25404e-05
4.56006e-05
4.67612e-05
4.11094e-05
4.25224e-05
4.25109e-05
4.68308e-05
4.68107e-05
4.75987e-05
4.26939e-05
4.30664e-05
4.36477e-05
4.34142e-05
4.70874e-05
4.72351e-05
4.25462e-05
4.28196e-05
4.38217e-05
4.36526e-05
4.28927e-05
4.3269e-05
4.34705e-05
4.69695e-05
4.74483e-05
4.28419e-05
4.35299e-05
4.34994e-05
4.73417e-05
4.78438e-05
4.80412e-05
4.40268e-05
4.37013e-05
4.45049e-05
4.46353e-05
4.74033e-05
4.82855e-05
4.41689e-05
4.37507e-05
4.45018e-05
4.43553e-05
4.36869e-05
4.47292e-05
4.45423e-05
4.75271e-05
4.79593e-05
4.37242e-05
4.44001e-05
4.44973e-05
4.81497e-05
4.80521e-05
4.85265e-05
4.45171e-05
4.47057e-05
4.48946e-05
4.4858e-05
4.83445e-05
4.83843e-05
4.45053e-05
4.46774e-05
4.48713e-05
4.51463e-05
4.47594e-05
4.49923e-05
4.50956e-05
4.81976e-05
4.86964e-05
4.47094e-05
4.52742e-05
4.50693e-05
4.8551e-05
4.88921e-05
4.9609e-05
4.54903e-05
4.52051e-05
4.64413e-05
4.64333e-05
4.85895e-05
4.95802e-05
4.54439e-05
4.52413e-05
4.63512e-05
4.62476e-05
4.5309e-05
4.6233e-05
4.63225e-05
4.87487e-05
4.9422e-05
4.52749e-05
4.60668e-05
4.63537e-05
4.96069e-05
4.96462e-05
4.99242e-05
4.64963e-05
4.65374e-05
4.68313e-05
4.67848e-05
4.96607e-05
4.99637e-05
4.6445e-05
4.6645e-05
4.69502e-05
4.71457e-05
4.65769e-05
4.70749e-05
4.69681e-05
4.97155e-05
5.01324e-05
4.66501e-05
4.72369e-05
4.69564e-05
4.9938e-05
5.01501e-05
5.06291e-05
4.72152e-05
4.71603e-05
4.77485e-05
4.79336e-05
5.01811e-05
5.06583e-05
4.71856e-05
4.71607e-05
4.7758e-05
4.74537e-05
4.70686e-05
4.77031e-05
4.75702e-05
5.01466e-05
5.03785e-05
4.6991e-05
4.73618e-05
4.75553e-05
5.05237e-05
5.06918e-05
5.11731e-05
4.77972e-05
4.79753e-05
4.84753e-05
4.82019e-05
5.06928e-05
5.11353e-05
4.79431e-05
4.79226e-05
4.85055e-05
4.86785e-05
4.78575e-05
4.85309e-05
4.87789e-05
5.06632e-05
5.13938e-05
4.7922e-05
4.8757e-05
4.87629e-05
5.14246e-05
5.1346e-05
5.17159e-05
4.87676e-05
4.86208e-05
4.91693e-05
4.9537e-05
5.14134e-05
5.20167e-05
4.86365e-05
4.87245e-05
4.91375e-05
4.90912e-05
4.89469e-05
4.95378e-05
4.91082e-05
5.14352e-05
5.16993e-05
4.88543e-05
4.91026e-05
4.90431e-05
5.16051e-05
5.18318e-05
5.25086e-05
4.93192e-05
4.96044e-05
5.00319e-05
4.966e-05
5.20361e-05
5.19394e-05
4.9428e-05
4.94514e-05
5.02322e-05
5.01411e-05
4.92199e-05
4.95513e-05
4.99244e-05
5.19213e-05
5.24103e-05
4.93034e-05
5.00676e-05
5.01177e-05
5.24214e-05
5.26069e-05
5.26731e-05
5.01927e-05
4.97487e-05
5.0442e-05
5.04691e-05
5.20361e-05
5.28625e-05
5.03492e-05
5.019e-05
5.04023e-05
5.02002e-05
5.00272e-05
5.05469e-05
5.03193e-05
5.24276e-05
5.2388e-05
5.02149e-05
5.01447e-05
5.02732e-05
5.25627e-05
5.27149e-05
5.31214e-05
5.05758e-05
5.06721e-05
5.10022e-05
5.11173e-05
5.30042e-05
5.32718e-05
5.04134e-05
5.02634e-05
5.08781e-05
5.11865e-05
5.05928e-05
5.12269e-05
5.14326e-05
5.25362e-05
5.34594e-05
5.03448e-05
5.13062e-05
5.13381e-05
5.35495e-05
5.32229e-05
5.37568e-05
5.11163e-05
5.12397e-05
5.16851e-05
5.17293e-05
5.33289e-05
5.36833e-05
5.10517e-05
5.13266e-05
5.16993e-05
5.15839e-05
5.15637e-05
5.15065e-05
5.16297e-05
5.3538e-05
5.36035e-05
5.1542e-05
5.16045e-05
5.16778e-05
5.35981e-05
5.39133e-05
5.41124e-05
5.19025e-05
5.18866e-05
5.22018e-05
5.20532e-05
5.38119e-05
5.39328e-05
5.19392e-05
5.17847e-05
5.22957e-05
5.22224e-05
5.16352e-05
5.21076e-05
5.20903e-05
5.36875e-05
5.4057e-05
5.16907e-05
5.21351e-05
5.21139e-05
5.40466e-05
5.41172e-05
5.41808e-05
5.22058e-05
5.20487e-05
5.22681e-05
5.21345e-05
5.39356e-05
5.4071e-05
5.23031e-05
5.22519e-05
5.23139e-05
5.23182e-05
5.22194e-05
5.21808e-05
5.23427e-05
5.40814e-05
5.4213e-05
5.22276e-05
5.23103e-05
5.2344e-05
5.41948e-05
5.4373e-05
5.51001e-05
5.25072e-05
5.24413e-05
5.33046e-05
5.33111e-05
5.43064e-05
5.51448e-05
5.24066e-05
5.24874e-05
5.31816e-05
5.32256e-05
5.24751e-05
5.32491e-05
5.32527e-05
5.44102e-05
5.51145e-05
5.24833e-05
5.32777e-05
5.3269e-05
5.51185e-05
5.51181e-05
5.44009e-05
5.33428e-05
5.33602e-05
5.30838e-05
5.31431e-05
5.51722e-05
5.45207e-05
5.32369e-05
5.32661e-05
5.30287e-05
5.30273e-05
5.3324e-05
5.31686e-05
5.31705e-05
5.51318e-05
5.44055e-05
5.33397e-05
5.30917e-05
5.31832e-05
5.45455e-05
5.43296e-05
5.4388e-05
5.28917e-05
5.29517e-05
5.27544e-05
5.28015e-05
5.4448e-05
5.44268e-05
5.28517e-05
5.28493e-05
5.27355e-05
5.27366e-05
5.29776e-05
5.28454e-05
5.28018e-05
5.4333e-05
5.43979e-05
5.29856e-05
5.27665e-05
5.28028e-05
5.43483e-05
5.46637e-05
5.68311e-05
5.28606e-05
5.28907e-05
5.4794e-05
5.47596e-05
5.4675e-05
5.67959e-05
5.28582e-05
5.28671e-05
5.48391e-05
5.48765e-05
5.28702e-05
5.47742e-05
5.46882e-05
5.46798e-05
5.6876e-05
5.28687e-05
5.4825e-05
5.4678e-05
5.67157e-05
5.71995e-05
5.81002e-05
5.54183e-05
5.53932e-05
5.63848e-05
5.63861e-05
5.71713e-05
5.81023e-05
5.54598e-05
5.5497e-05
5.64182e-05
5.64494e-05
5.53531e-05
5.64109e-05
5.64156e-05
5.72458e-05
5.81452e-05
5.53444e-05
5.64408e-05
5.64101e-05
5.81294e-05
5.81026e-05
5.5534e-05
5.64073e-05
5.64117e-05
5.50151e-05
5.50444e-05
5.81069e-05
5.55565e-05
5.64394e-05
5.64686e-05
5.50196e-05
5.50131e-05
5.64494e-05
5.5068e-05
5.51386e-05
5.81459e-05
5.55346e-05
5.64445e-05
5.50542e-05
5.51437e-05
5.56348e-05
5.49573e-05
5.21191e-05
5.38386e-05
5.38605e-05
5.11532e-05
5.11593e-05
5.49751e-05
5.21139e-05
5.38392e-05
5.38282e-05
5.11473e-05
5.11285e-05
5.39278e-05
5.11484e-05
5.11621e-05
5.49512e-05
5.20912e-05
5.39338e-05
5.11368e-05
5.11672e-05
5.21204e-05
5.19331e-05
5.16639e-05
5.06277e-05
5.06308e-05
5.00393e-05
5.00387e-05
5.19259e-05
5.16515e-05
5.06219e-05
5.06028e-05
5.00369e-05
5.00218e-05
5.06192e-05
5.00208e-05
5.00041e-05
5.19041e-05
5.16421e-05
5.06228e-05
5.00114e-05
5.00027e-05
5.16143e-05
5.18658e-05
5.40482e-05
5.00666e-05
5.00657e-05
5.18926e-05
5.18957e-05
5.18541e-05
5.40495e-05
5.00653e-05
5.00519e-05
5.18998e-05
5.19045e-05
5.00288e-05
5.18917e-05
5.18613e-05
5.18482e-05
5.40511e-05
5.00263e-05
5.18869e-05
5.18529e-05
5.40164e-05
5.46642e-05
5.83259e-05
5.28751e-05
5.28809e-05
5.62605e-05
5.62699e-05
5.46681e-05
5.83357e-05
5.28814e-05
5.28881e-05
5.62649e-05
5.62738e-05
5.28568e-05
5.62742e-05
5.62673e-05
5.46694e-05
5.83357e-05
5.28499e-05
5.62701e-05
5.62633e-05
5.83302e-05
5.90468e-05
6.23438e-05
5.74379e-05
5.74472e-05
6.04387e-05
6.04455e-05
5.90568e-05
6.23514e-05
5.74419e-05
5.74501e-05
6.04409e-05
6.04449e-05
5.74494e-05
6.0452e-05
6.04562e-05
5.90564e-05
6.23495e-05
5.74462e-05
6.04491e-05
6.04548e-05
6.23597e-05
6.27263e-05
6.3237e-05
6.11042e-05
6.111e-05
6.17985e-05
6.18017e-05
6.27333e-05
6.32396e-05
6.1106e-05
6.11082e-05
6.17991e-05
6.17977e-05
6.11218e-05
6.18078e-05
6.18137e-05
6.2731e-05
6.32364e-05
6.1121e-05
6.1806e-05
6.18143e-05
6.32505e-05
6.29082e-05
5.86552e-05
6.1702e-05
6.17042e-05
5.83858e-05
5.83826e-05
6.29091e-05
5.86536e-05
6.17022e-05
6.16998e-05
5.83842e-05
5.83778e-05
6.17157e-05
5.83873e-05
5.83889e-05
6.29057e-05
5.86523e-05
6.17169e-05
5.83877e-05
5.83926e-05
5.86597e-05
5.7905e-05
5.39172e-05
5.69573e-05
5.69541e-05
5.32766e-05
5.32739e-05
5.79035e-05
5.39158e-05
5.6956e-05
5.69507e-05
5.32756e-05
5.32729e-05
5.69599e-05
5.3278e-05
5.32781e-05
5.79024e-05
5.39162e-05
5.69633e-05
5.32786e-05
5.32803e-05
5.39192e-05
5.34988e-05
5.17432e-05
5.2344e-05
5.23417e-05
5.05586e-05
5.05576e-05
5.34976e-05
5.17429e-05
5.2343e-05
5.23408e-05
5.05574e-05
5.05569e-05
5.23454e-05
5.05598e-05
5.05599e-05
5.34979e-05
5.17432e-05
5.23471e-05
5.05598e-05
5.05602e-05
5.17445e-05
5.16782e-05
5.18055e-05
5.02806e-05
5.02801e-05
5.01096e-05
5.01098e-05
5.16781e-05
5.18059e-05
5.02794e-05
5.02793e-05
5.01084e-05
5.01089e-05
5.02821e-05
5.01109e-05
5.01112e-05
5.16782e-05
5.18061e-05
5.0282e-05
5.01108e-05
5.01107e-05
5.18068e-05
5.20072e-05
5.3069e-05
5.02506e-05
5.02515e-05
5.13141e-05
5.13154e-05
5.20078e-05
5.30697e-05
5.02497e-05
5.02505e-05
5.1314e-05
5.13142e-05
5.02525e-05
5.13166e-05
5.13165e-05
5.20079e-05
5.30697e-05
5.02517e-05
5.13165e-05
5.13161e-05
5.30707e-05
5.32535e-05
5.375e-05
5.15758e-05
5.1577e-05
5.19915e-05
5.19924e-05
5.32542e-05
5.37504e-05
5.15759e-05
5.15758e-05
5.1992e-05
5.19913e-05
5.15783e-05
5.19939e-05
5.19941e-05
5.32541e-05
5.37502e-05
5.15781e-05
5.19942e-05
5.19943e-05
5.37517e-05
5.38193e-05
5.39205e-05
5.20479e-05
5.20487e-05
5.20733e-05
5.2074e-05
5.38195e-05
5.39208e-05
5.20485e-05
5.20477e-05
5.20738e-05
5.20731e-05
5.20505e-05
5.20758e-05
5.20759e-05
5.38193e-05
5.39205e-05
5.20508e-05
5.20759e-05
5.20762e-05
5.39221e-05
5.39448e-05
5.39514e-05
5.20681e-05
5.20687e-05
5.20258e-05
5.20262e-05
5.39452e-05
5.39518e-05
5.20686e-05
5.20679e-05
5.20261e-05
5.20255e-05
5.20707e-05
5.20281e-05
5.20283e-05
5.39448e-05
5.39515e-05
5.2071e-05
5.20284e-05
5.20286e-05
5.39531e-05
5.39671e-05
5.39503e-05
5.20193e-05
5.20197e-05
5.19876e-05
5.19879e-05
5.39674e-05
5.39505e-05
5.20197e-05
5.20189e-05
5.19879e-05
5.19871e-05
5.20219e-05
5.19898e-05
5.19902e-05
5.39671e-05
5.39502e-05
5.20222e-05
5.19901e-05
5.19904e-05
5.3952e-05
5.39641e-05
5.39343e-05
5.19844e-05
5.19847e-05
5.19575e-05
5.19579e-05
5.39643e-05
5.39345e-05
5.19847e-05
5.19839e-05
5.19579e-05
5.1957e-05
5.1987e-05
5.19598e-05
5.19601e-05
5.39639e-05
5.39341e-05
5.19872e-05
5.196e-05
5.19603e-05
5.39359e-05
5.39467e-05
5.39163e-05
5.19553e-05
5.19557e-05
5.19393e-05
5.19397e-05
5.39469e-05
5.39164e-05
5.19557e-05
5.19548e-05
5.19397e-05
5.19389e-05
5.19579e-05
5.19417e-05
5.19419e-05
5.39465e-05
5.39162e-05
5.1958e-05
5.19419e-05
5.1942e-05
5.39178e-05
5.39304e-05
5.39222e-05
5.19431e-05
5.19435e-05
5.19354e-05
5.19359e-05
5.39307e-05
5.39226e-05
5.19435e-05
5.19427e-05
5.19358e-05
5.19351e-05
5.19457e-05
5.19379e-05
5.19381e-05
5.39303e-05
5.39222e-05
5.19458e-05
5.1938e-05
5.19381e-05
5.39237e-05
5.39367e-05
5.37638e-05
5.19271e-05
5.19276e-05
5.17786e-05
5.17793e-05
5.39372e-05
5.37643e-05
5.19275e-05
5.19266e-05
5.17802e-05
5.17773e-05
5.19295e-05
5.17827e-05
5.17806e-05
5.39366e-05
5.37634e-05
5.19296e-05
5.17815e-05
5.1782e-05
5.37651e-05
5.36188e-05
5.08587e-05
5.08594e-05
5.36195e-05
5.08606e-05
5.08574e-05
4.1269e-05
4.12677e-05
4.12696e-05
5.08607e-05
5.36185e-05
5.08624e-05
1.35961e-06
2.80968e-07
8.20417e-07
8.18187e-07
1.01962e-07
3.36685e-07
4.2454e-07
4.26589e-07
1.09534e-07
3.28135e-07
4.23481e-07
5.12814e-07
3.66333e-07
2.70213e-07
2.70803e-07
2.91304e-07
4.94699e-06
2.56513e-07
6.63027e-06
1.33642e-05
2.07771e-05
3.06193e-07
4.96001e-06
2.62158e-07
6.63602e-06
4.46612e-07
4.46638e-07
4.53143e-07
4.4524e-07
4.42397e-07
4.42055e-07
4.4865e-07
1.08905e-07
6.77505e-07
2.50905e-07
3.29117e-07
1.06599e-07
6.49412e-07
2.47834e-07
1.41104e-05
2.16961e-05
1.10726e-07
2.28455e-07
7.00261e-07
2.85363e-07
1.11043e-07
2.25844e-07
6.4358e-07
1.88744e-06
1.8938e-06
3.50369e-07
1.87165e-06
1.87343e-06
4.84292e-07
9.78463e-06
3.96913e-07
1.25117e-05
3.60235e-05
4.58125e-05
5.01049e-07
9.79946e-06
4.25805e-07
1.25296e-05
4.42429e-07
4.42082e-07
4.48609e-07
4.44858e-07