/*--------------------------------*- C++ -*----------------------------------*\
| =========                 |                                                 |
| \\      /  F ield         | OpenFOAM: The Open Source CFD Toolbox           |
|  \\    /   O peration     | Version:  v1906                                 |
|   \\  /    A nd           | Web:      www.OpenFOAM.com                      |
|    \\/     M anipulation  |                                                 |
\*---------------------------------------------------------------------------*/
FoamFile
{
    version     2.0;
    format      ascii;
    class       volScalarField;
    location    "337.5";
    object      nut;
}
// * * * * * * * * * * * * * * * * * * * * * * * * * * * * * * * * * * * * * //

dimensions      [0 2 -1 0 0 0 0];


internalField   nonuniform List<scalar> 
171728
(
6.00682e-06
2.15588e-06
2.23841e-06
2.25781e-06
5.9416e-06
2.11832e-06
2.14374e-06
2.24387e-06
6.03376e-06
2.09421e-06
2.10669e-06
2.21218e-06
6.12777e-06
2.07625e-06
2.07013e-06
2.17318e-06
6.22697e-06
2.05917e-06
2.00955e-06
2.13604e-06
6.32687e-06
2.04707e-06
1.94178e-06
2.08457e-06
6.43508e-06
2.03791e-06
1.8419e-06
2.04274e-06
6.55393e-06
2.0208e-06
1.75622e-06
2.01615e-06
6.68487e-06
1.98389e-06
1.68638e-06
2.00457e-06
6.82114e-06
1.93346e-06
1.63599e-06
2.01492e-06
6.95792e-06
1.87566e-06
1.57983e-06
2.09058e-06
7.0993e-06
1.82359e-06
1.5135e-06
2.21112e-06
7.24592e-06
1.73297e-06
1.42075e-06
2.31283e-06
7.39406e-06
1.6297e-06
1.33474e-06
2.31192e-06
7.55341e-06
1.5394e-06
1.24714e-06
1.81466e-06
7.68762e-06
1.44859e-06
1.17385e-06
1.47522e-06
7.82334e-06
1.37373e-06
1.11093e-06
1.28222e-06
7.9394e-06
1.30858e-06
1.12163e-06
1.20504e-06
8.06797e-06
1.29223e-06
1.17948e-06
1.19491e-06
8.14711e-06
1.32802e-06
1.26485e-06
1.3598e-06
8.23221e-06
1.52085e-06
1.61281e-06
1.72374e-06
8.28408e-06
1.74216e-06
2.07615e-06
2.12612e-06
8.29502e-06
2.38583e-06
2.96698e-06
3.47367e-06
8.26151e-06
3.09061e-06
3.90637e-06
6.39493e-06
8.1834e-06
4.08728e-06
4.58215e-06
7.52518e-06
8.108e-06
5.18063e-06
5.71805e-06
1.38144e-05
7.81211e-06
7.45103e-06
8.00282e-06
1.70077e-05
7.70956e-06
9.12586e-06
9.09769e-06
2.41275e-05
7.31658e-06
1.17438e-05
1.2042e-05
3.16717e-05
7.3501e-06
1.53623e-05
1.51632e-05
3.8225e-05
6.89957e-06
1.72026e-05
1.7885e-05
4.55199e-05
7.07563e-06
2.27354e-05
2.19413e-05
5.26921e-05
7.04954e-06
2.63057e-05
2.67822e-05
5.81997e-05
7.09775e-06
3.15957e-05
3.07651e-05
6.52632e-05
8.09449e-06
3.51077e-05
3.57985e-05
6.97738e-05
7.61511e-06
4.49999e-05
4.21994e-05
7.5047e-05
1.03456e-05
4.67719e-05
4.55904e-05
7.98531e-05
9.52752e-06
5.02499e-05
5.3579e-05
8.31926e-05
1.25203e-05
6.19566e-05
6.07483e-05
8.85054e-05
1.26164e-05
6.25342e-05
6.16916e-05
9.2084e-05
1.85894e-05
7.29443e-05
7.54639e-05
9.60751e-05
1.73112e-05
7.45328e-05
8.01666e-05
9.97904e-05
2.34132e-05
8.77472e-05
7.85365e-05
0.000104526
2.49908e-05
8.88295e-05
9.10995e-05
0.000105459
3.03573e-05
8.92081e-05
9.57045e-05
0.000112501
3.28802e-05
0.000107142
0.000102952
0.000117035
4.17439e-05
0.00010778
0.000104152
0.000116464
4.00073e-05
0.00011226
0.00011303
0.000123119
5.37196e-05
0.00011404
0.000116772
0.00012632
5.42548e-05
0.000124677
0.000122023
0.000128876
6.56411e-05
0.000127108
0.000129511
0.00013354
6.9228e-05
0.000127
0.000127786
0.000133998
7.28965e-05
0.000139915
0.000137148
0.000141338
9.08092e-05
0.000143241
0.000143622
0.000143813
8.88013e-05
0.000140277
0.00014154
0.000142517
9.63192e-05
0.000150038
0.000150101
0.00014945
0.000105481
0.000152164
0.000152597
0.000150895
0.000115319
0.000158585
0.000157737
0.000154333
0.000112515
0.000158658
0.000159824
0.000155329
0.000126294
0.000164583
0.000165269
0.000160385
0.000130702
0.000169191
0.000169195
0.000160908
0.000137024
0.000170614
0.000169515
0.000163748
0.000143325
0.000176239
0.000176337
0.000167468
0.000148335
0.000180215
0.000178493
0.000167853
0.000158104
0.000178934
0.000182717
0.000171672
0.000161209
0.000185841
0.000181891
0.000171837
0.000165769
0.000188484
0.000189535
0.000176898
0.000172298
0.000190636
0.000190257
0.000176696
0.000180348
0.000193459
0.000193584
0.00017929
0.000181027
0.000193691
0.000194957
0.000179734
0.000189906
0.000200961
0.000201042
0.000185049
0.000194879
0.000199673
0.000199123
0.000182115
0.000190707
0.000196546
0.000196045
0.000179714
0.000204327
0.000211996
0.000212318
0.000192527
0.000227349
0.000223961
0.000224191
0.000202381
0.0002319
0.000214079
0.000213995
0.000191475
0.000199671
0.000192549
0.000192475
0.000174435
0.000180889
0.000184935
0.000184878
0.000169758
0.00018679
0.000196287
0.000196264
0.000178742
0.000226761
0.000220277
0.000220252
0.00019677
0.000266204
0.000245335
0.000245312
0.000216957
0.000291313
0.000259082
0.000259057
0.000225993
0.000275545
0.000235604
0.000235596
0.000206442
0.000227058
0.000208772
0.000208767
0.000186305
0.000198964
0.000196816
0.000196808
0.000177223
0.000194419
0.000197163
0.000197152
0.000178316
0.000213477
0.000207112
0.000207102
0.000184735
0.000227717
0.000211148
0.000211138
0.000187441
0.000232771
0.000211798
0.000211787
0.000187873
0.000234309
0.000211698
0.000211688
0.00018787
0.000234783
0.000211557
0.000211547
0.000187825
0.000234809
0.000211392
0.000211382
0.000187738
0.000234704
0.00021131
0.000211299
0.000187629
0.000234671
0.00021123
0.000211218
0.000187688
0.000236671
0.000212595
0.000212587
0.00019117
2.42718e-06
2.61045e-06
2.30646e-06
2.26527e-06
2.57819e-06
2.63474e-06
6.17338e-06
6.14109e-06
6.22239e-06
6.02419e-06
2.41011e-06
2.1383e-06
2.40789e-06
2.50519e-06
2.49124e-06
2.25847e-06
2.42511e-06
2.39565e-06
2.25006e-06
2.08405e-06
2.22482e-06
2.14576e-06
2.26053e-06
2.2554e-06
2.23026e-06
2.3081e-06
2.20011e-06
2.27732e-06
1.97136e-06
2.12546e-06
1.92639e-06
2.4048e-06
2.37809e-06
2.20672e-06
2.15539e-06
2.18034e-06
2.23787e-06
2.39402e-06
2.37289e-06
2.2189e-06
2.17813e-06
2.20612e-06
2.26433e-06
2.2391e-06
2.24558e-06
2.19375e-06
2.27084e-06
2.17831e-06
2.25834e-06
1.90965e-06
2.10006e-06
1.85774e-06
2.37547e-06
2.35022e-06
2.17511e-06
2.11432e-06
2.1667e-06
2.20292e-06
2.3716e-06
2.3553e-06
2.20131e-06
2.28675e-06
2.19053e-06
2.33492e-06
2.22767e-06
2.23291e-06
2.17255e-06
2.25383e-06
2.1596e-06
2.24288e-06
1.84683e-06
2.08178e-06
1.82153e-06
2.34762e-06
2.32897e-06
2.16428e-06
2.08023e-06
2.15101e-06
2.1712e-06
2.35345e-06
2.33238e-06
2.18658e-06
2.35264e-06
2.17741e-06
2.42157e-06
2.21166e-06
2.21744e-06
2.15514e-06
2.2393e-06
2.14586e-06
2.22814e-06
1.80996e-06
2.0647e-06
1.76415e-06
2.32654e-06
2.30598e-06
2.14443e-06
2.02653e-06
2.12549e-06
2.13885e-06
2.3295e-06
2.30344e-06
2.17326e-06
2.44024e-06
2.15902e-06
2.42136e-06
2.1968e-06
2.19772e-06
2.14225e-06
2.22329e-06
2.13095e-06
2.21045e-06
1.75199e-06
2.04966e-06
1.72975e-06
2.30235e-06
2.27751e-06
2.12145e-06
1.96143e-06
2.11882e-06
2.10171e-06
2.29958e-06
2.27131e-06
2.15415e-06
2.40078e-06
2.13735e-06
2.30153e-06
2.18632e-06
2.18328e-06
2.12708e-06
2.20487e-06
2.11112e-06
2.1874e-06
1.72508e-06
2.03929e-06
1.73192e-06
2.27275e-06
2.24739e-06
2.11745e-06
1.86647e-06
2.10909e-06
2.05904e-06
2.26632e-06
2.23975e-06
2.13077e-06
2.2586e-06
2.11178e-06
2.13019e-06
2.1794e-06
2.16319e-06
2.10466e-06
2.18124e-06
2.08126e-06
2.15781e-06
1.73915e-06
2.02909e-06
1.7653e-06
2.24207e-06
2.22117e-06
2.09954e-06
1.77463e-06
2.06465e-06
2.03193e-06
2.23383e-06
2.2021e-06
2.10362e-06
2.0944e-06
2.07341e-06
2.01299e-06
2.15819e-06
2.12008e-06
2.07261e-06
2.14907e-06
2.03803e-06
2.11525e-06
1.77829e-06
1.99278e-06
1.84232e-06
2.2164e-06
2.19244e-06
2.05347e-06
1.70225e-06
2.02395e-06
2.01694e-06
2.19503e-06
2.15031e-06
2.0632e-06
1.98981e-06
2.02622e-06
1.93036e-06
2.11204e-06
2.06209e-06
2.02524e-06
2.10306e-06
1.98498e-06
2.06066e-06
1.86252e-06
1.94861e-06
1.97477e-06
2.18593e-06
2.13154e-06
2.01126e-06
1.64756e-06
1.97845e-06
2.0229e-06
2.14036e-06
2.06989e-06
2.0111e-06
1.91235e-06
1.96771e-06
1.86223e-06
2.05157e-06
1.98069e-06
1.97184e-06
2.04309e-06
1.92031e-06
1.98729e-06
2.0282e-06
1.88912e-06
2.21094e-06
2.12285e-06
2.04784e-06
1.96839e-06
1.59564e-06
1.91613e-06
2.08688e-06
2.05828e-06
1.97804e-06
1.94943e-06
1.84599e-06
1.88697e-06
1.79013e-06
1.96868e-06
1.89437e-06
1.90105e-06
1.96569e-06
1.84155e-06
1.89852e-06
2.29998e-06
1.83924e-06
2.77467e-06
2.03747e-06
1.94694e-06
1.8938e-06
1.53214e-06
1.82633e-06
2.20099e-06
1.96454e-06
1.87845e-06
1.86297e-06
1.76959e-06
1.79105e-06
1.69912e-06
1.88121e-06
1.80219e-06
1.82187e-06
1.87571e-06
1.75039e-06
1.80533e-06
2.99556e-06
1.75923e-06
3.64793e-06
1.93367e-06
1.82966e-06
1.80715e-06
1.44627e-06
1.75319e-06
2.31644e-06
1.86156e-06
1.77482e-06
1.76821e-06
1.67642e-06
1.69284e-06
1.60462e-06
1.78501e-06
1.69642e-06
1.72669e-06
1.78077e-06
1.64979e-06
1.70934e-06
3.80491e-06
1.65269e-06
4.01744e-06
1.81245e-06
1.70459e-06
1.73855e-06
1.35576e-06
1.69013e-06
2.34019e-06
1.7535e-06
1.66586e-06
1.66754e-06
1.58133e-06
1.59107e-06
1.51094e-06
1.67506e-06
1.58836e-06
1.62299e-06
1.68589e-06
1.54695e-06
1.61107e-06
3.99251e-06
1.56187e-06
2.83916e-06
1.68342e-06
1.58274e-06
1.66841e-06
1.27115e-06
1.58426e-06
1.87252e-06
1.63864e-06
1.55057e-06
1.56403e-06
1.48616e-06
1.48221e-06
1.4133e-06
1.56202e-06
1.48048e-06
1.52215e-06
1.58782e-06
1.44553e-06
1.51777e-06
2.44106e-06
1.47425e-06
1.62327e-06
1.55595e-06
1.46272e-06
1.55622e-06
1.18998e-06
1.47568e-06
1.51258e-06
1.51821e-06
1.43431e-06
1.45616e-06
1.38739e-06
1.38242e-06
1.3296e-06
1.44845e-06
1.37313e-06
1.42466e-06
1.48983e-06
1.35534e-06
1.41677e-06
1.44468e-06
1.39036e-06
1.11714e-06
1.43287e-06
1.3454e-06
1.44593e-06
1.12528e-06
1.36635e-06
1.30795e-06
1.40247e-06
1.34152e-06
1.36398e-06
1.31355e-06
1.30602e-06
1.25952e-06
1.3548e-06
1.27576e-06
1.33865e-06
1.39811e-06
1.28579e-06
1.32369e-06
1.06933e-06
1.31992e-06
9.79083e-07
1.31935e-06
1.25642e-06
1.34089e-06
1.11221e-06
1.29972e-06
1.21074e-06
1.31723e-06
1.31462e-06
1.29577e-06
1.25219e-06
1.27618e-06
1.23825e-06
1.25931e-06
1.25654e-06
1.27494e-06
1.32068e-06
1.26139e-06
1.27869e-06
9.81885e-07
1.28186e-06
1.01148e-06
1.23955e-06
1.24962e-06
1.28242e-06
1.16372e-06
1.2627e-06
1.17827e-06
1.3079e-06
1.40445e-06
1.28297e-06
1.25241e-06
1.30682e-06
1.27779e-06
1.2597e-06
1.3615e-06
1.2676e-06
1.29249e-06
1.28732e-06
1.32858e-06
1.01911e-06
1.30893e-06
1.08034e-06
1.24196e-06
1.37476e-06
1.26285e-06
1.21564e-06
1.32089e-06
1.2942e-06
1.41955e-06
1.77264e-06
1.32118e-06
1.29311e-06
1.49163e-06
1.43819e-06
1.36856e-06
1.72595e-06
1.30417e-06
1.32145e-06
1.48918e-06
1.51291e-06
1.10352e-06
1.46374e-06
1.278e-06
1.38313e-06
1.72886e-06
1.33044e-06
1.47379e-06
1.47707e-06
1.53744e-06
1.87495e-06
2.13482e-06
1.49578e-06
1.49731e-06
1.71483e-06
1.67578e-06
1.80812e-06
2.33493e-06
1.48392e-06
1.56093e-06
1.71101e-06
1.69713e-06
1.34262e-06
1.7038e-06
1.51666e-06
1.86521e-06
2.25716e-06
1.53709e-06
1.95092e-06
1.68392e-06
2.01594e-06
2.49638e-06
3.41412e-06
1.85566e-06
1.71731e-06
2.16391e-06
2.276e-06
2.48849e-06
3.45417e-06
1.85666e-06
1.82077e-06
2.14263e-06
2.21999e-06
1.6996e-06
2.29133e-06
1.9218e-06
2.41456e-06
3.73211e-06
1.87042e-06
2.90725e-06
2.05574e-06
3.49805e-06
3.60042e-06
5.03222e-06
2.26226e-06
2.37345e-06
2.83557e-06
2.7325e-06
4.06104e-06
4.4409e-06
2.24094e-06
2.3311e-06
2.82112e-06
2.84444e-06
2.03895e-06
2.73742e-06
2.88119e-06
4.02683e-06
5.10079e-06
2.15559e-06
3.40771e-06
3.01419e-06
5.70655e-06
5.64118e-06
7.77985e-06
3.0414e-06
3.08464e-06
3.83472e-06
3.7776e-06
4.75901e-06
8.86859e-06
3.03427e-06
3.07062e-06
3.85135e-06
3.78398e-06
2.9651e-06
3.76998e-06
3.5397e-06
5.59043e-06
8.46138e-06
3.08516e-06
4.45471e-06
3.58724e-06
6.74439e-06
8.34587e-06
1.1868e-05
4.02977e-06
4.11e-06
5.14778e-06
4.96917e-06
9.02064e-06
1.19057e-05
4.07866e-06
4.05715e-06
5.08956e-06
5.22603e-06
4.07708e-06
4.97531e-06
5.08397e-06
9.06589e-06
1.15676e-05
4.10673e-06
5.58306e-06
5.19264e-06
1.33335e-05
1.2534e-05
1.73805e-05
5.70727e-06
5.17214e-06
6.37291e-06
6.95558e-06
1.3006e-05
1.59068e-05
5.67823e-06
5.4293e-06
6.35247e-06
6.57643e-06
5.23188e-06
6.90241e-06
6.63214e-06
1.25797e-05
1.60184e-05
5.33249e-06
7.0551e-06
6.62814e-06
1.55451e-05
1.81764e-05
2.20088e-05
6.66736e-06
7.46535e-06
9.20846e-06
8.51173e-06
1.77577e-05
2.34072e-05
6.65153e-06
7.33933e-06
9.19591e-06
8.7123e-06
7.18456e-06
8.42273e-06
8.56174e-06
1.68774e-05
2.50709e-05
7.18541e-06
8.91565e-06
8.61597e-06
2.31763e-05
2.47375e-05
3.01741e-05
9.88237e-06
9.26277e-06
1.065e-05
1.13316e-05
2.33388e-05
3.09436e-05
9.74333e-06
8.96322e-06
1.07495e-05
1.14725e-05
9.16653e-06
1.13429e-05
1.12048e-05
2.58485e-05
2.83407e-05
9.19914e-06
1.16672e-05
1.11824e-05
3.00432e-05
2.9721e-05
3.82469e-05
1.12232e-05
1.17382e-05
1.46616e-05
1.41256e-05
3.27213e-05
3.64209e-05
1.13909e-05
1.21923e-05
1.44699e-05
1.3554e-05
1.18774e-05
1.39729e-05
1.39462e-05
3.0643e-05
3.73553e-05
1.20199e-05
1.39348e-05
1.37373e-05
3.68487e-05
4.0627e-05
4.41277e-05
1.56407e-05
1.54424e-05
1.68579e-05
1.68868e-05
3.80925e-05
4.45615e-05
1.54862e-05
1.47468e-05
1.68782e-05
1.77286e-05
1.47039e-05
1.68754e-05
1.75247e-05
3.819e-05
4.46471e-05
1.44636e-05
1.74627e-05
1.7557e-05
4.41107e-05
4.55389e-05
5.00509e-05
1.75305e-05
1.73137e-05
2.1614e-05
2.1651e-05
4.53218e-05
5.04913e-05
1.75281e-05
1.80486e-05
2.15812e-05
2.09388e-05
1.84125e-05
2.14922e-05
2.11457e-05
4.64359e-05
4.98037e-05
1.83533e-05
2.07056e-05
2.11288e-05
5.14228e-05
5.18494e-05
5.83896e-05
2.28423e-05
2.28299e-05
2.52011e-05
2.47485e-05
5.21229e-05
5.86884e-05
2.27593e-05
2.23805e-05
2.50406e-05
2.54611e-05
2.24144e-05
2.48171e-05
2.46015e-05
5.06792e-05
5.8936e-05
2.23015e-05
2.5823e-05
2.47424e-05
5.68866e-05
5.89301e-05
6.26701e-05
2.60308e-05
2.62858e-05
2.93886e-05
3.15526e-05
6.03955e-05
6.24764e-05
2.60119e-05
2.65053e-05
2.94806e-05
2.99233e-05
2.53967e-05
3.1336e-05
3.15494e-05
6.04916e-05
6.24801e-05
2.57517e-05
2.92855e-05
3.07583e-05
6.41541e-05
6.47279e-05
6.91547e-05
3.1057e-05
3.18148e-05
3.60078e-05
3.19621e-05
6.34805e-05
6.80969e-05
3.07705e-05
3.09353e-05
3.6055e-05
3.50112e-05
3.27742e-05
3.19434e-05
3.33909e-05
6.36339e-05
6.91087e-05
3.19531e-05
3.48347e-05
3.38129e-05
6.86082e-05
6.98708e-05
7.36163e-05
3.66774e-05
3.51871e-05
3.84603e-05
4.442e-05
6.94036e-05
7.66749e-05
3.74402e-05
3.64169e-05
3.83997e-05
4.00322e-05
3.50377e-05
4.43505e-05
4.11285e-05
7.01741e-05
7.40505e-05
3.53271e-05
4.0326e-05
4.0748e-05
7.36426e-05
7.46489e-05
7.97248e-05
4.04938e-05
4.50497e-05
4.87338e-05
4.48159e-05
7.74825e-05
7.75888e-05
3.95971e-05
4.18109e-05
4.8085e-05
4.63371e-05
4.1893e-05
4.46883e-05
4.60857e-05
7.52796e-05
7.79832e-05
4.16037e-05
4.53392e-05
4.59205e-05
7.90201e-05
8.0793e-05
8.19406e-05
5.0089e-05
4.67386e-05
4.90848e-05
4.931e-05
7.81096e-05
8.26204e-05
4.99231e-05
4.65609e-05
4.97798e-05
4.92976e-05
4.85137e-05
4.93105e-05
5.09826e-05
7.8613e-05
8.27436e-05
4.82468e-05
5.01585e-05
5.07255e-05
8.23174e-05
8.24915e-05
8.68292e-05
4.93333e-05
5.0756e-05
5.88933e-05
5.98416e-05
8.36842e-05
8.76387e-05
5.09399e-05
5.22402e-05
5.78913e-05
6.14438e-05
5.08805e-05
5.92955e-05
5.7384e-05
8.45421e-05
8.83361e-05
5.07529e-05
6.07744e-05
5.72975e-05
8.70824e-05
8.80833e-05
9.11808e-05
5.97916e-05
6.1494e-05
6.1551e-05
6.12936e-05
8.87596e-05
9.09778e-05
5.8717e-05
6.2535e-05
6.15205e-05
6.07829e-05
6.0996e-05
6.24647e-05
6.53342e-05
8.85299e-05
8.87909e-05
6.08087e-05
5.97603e-05
6.51929e-05
9.16418e-05
9.22019e-05
9.64889e-05
6.42322e-05
6.32853e-05
7.36968e-05
7.2414e-05
9.17478e-05
9.53122e-05
6.4345e-05
6.0314e-05
7.38498e-05
7.15412e-05
6.47253e-05
7.16854e-05
6.94281e-05
9.00447e-05
9.74147e-05
6.45815e-05
7.20172e-05
6.8271e-05
9.4687e-05
9.7086e-05
9.75379e-05
7.49365e-05
7.32357e-05
7.32425e-05
7.19095e-05
9.57609e-05
9.75095e-05
7.51104e-05
7.53186e-05
7.33419e-05
7.88689e-05
7.29843e-05
7.24936e-05
7.5243e-05
9.85824e-05
9.97482e-05
7.21789e-05
8.04611e-05
7.6998e-05
9.91377e-05
9.79008e-05
0.000103977
7.30235e-05
7.3818e-05
8.4493e-05
8.48722e-05
9.92335e-05
0.000105824
7.29872e-05
7.81038e-05
8.28361e-05
7.79193e-05
7.52128e-05
8.4937e-05
8.36774e-05
9.97651e-05
0.000100865
7.65354e-05
7.73721e-05
8.23961e-05
0.000103645
0.000104885
0.000106761
8.56083e-05
8.78373e-05
8.8057e-05
9.05087e-05
0.000106386
0.000105571
8.36374e-05
8.24368e-05
8.76815e-05
8.8712e-05
8.63881e-05
8.97697e-05
8.72324e-05
0.000102237
0.000107577
8.52778e-05
9.02658e-05
8.6461e-05
0.000105136
0.000107609
0.000110032
9.02901e-05
8.97249e-05
9.20205e-05
8.65291e-05
0.000105381
0.000107275
9.07277e-05
8.84455e-05
9.50092e-05
9.21472e-05
8.64694e-05
8.59053e-05
9.19293e-05
0.000108001
0.00011018
8.65514e-05
9.30807e-05
9.25964e-05
0.000110961
0.000110347
0.000114677
9.24643e-05
8.8368e-05
0.000100628
0.000103684
0.000109082
0.000118013
9.44168e-05
9.55347e-05
9.79928e-05
0.000102714
9.57789e-05
0.000104429
0.000104845
0.00011137
0.000115578
9.59692e-05
0.000102755
0.000104166
0.000116692
0.000116138
0.000118358
0.000103767
0.000106922
0.000106305
0.000109871
0.000118875
0.000119653
0.000101676
0.000102738
0.000107398
0.000102393
0.000105918
0.000108453
0.000104498
0.000115807
0.000116215
0.000105002
0.000102574
0.000103358
0.000116506
0.000118348
0.000120402
0.000105543
0.000109265
0.000107718
0.000108924
0.00011965
0.000121171
0.000107046
0.000104375
0.000107727
0.000110854
0.000103475
0.00011082
0.000108691
0.000117074
0.00012246
0.000102645
0.000110698
0.000109449
0.000121578
0.00012189
0.00012615
0.000111539
0.000111264
0.000118739
0.000114159
0.000122157
0.000123865
0.00011082
0.000112988
0.000116962
0.000116589
0.000112288
0.000112893
0.000117693
0.000123325
0.000125229
0.000112687
0.000116645
0.000118073
0.0001262
0.000126451
0.000128226
0.000118896
0.00011508
0.000118595
0.000121666
0.000124479
0.000130314
0.000117278
0.000116773
0.000119396
0.000119521
0.000117634
0.000122013
0.000118998
0.000125479
0.00012866
0.000118101
0.000119687
0.000118676
0.000127934
0.000129201
0.000133193
0.000120865
0.000124174
0.000127917
0.000127302
0.000131358
0.000132128
0.00012158
0.000121798
0.000128173
0.000128595
0.000121112
0.000127613
0.000128107
0.000129884
0.000133883
0.000120437
0.000128642
0.00012759
0.000133213
0.00013341
0.000133429
0.000128697
0.000126854
0.000127506
0.000125322
0.000131852
0.000132401
0.000128952
0.000129575
0.000127815
0.000128618
0.000129063
0.000125268
0.000128092
0.000134034
0.000133308
0.000128843
0.000128395
0.000128423
0.000133717
0.000133761
0.000140423
0.000127548
0.0001273
0.000135966
0.000137161
0.00013372
0.000141611
0.000127666
0.000128016
0.00013529
0.000133894
0.00012785
0.00013712
0.000134938
0.000133345
0.000139324
0.000128458
0.000133779
0.000134871
0.000139962
0.00014169
0.000143256
0.000138862
0.000139943
0.000142586
0.000143497
0.00014266
0.000143896
0.000138333
0.000137259
0.000142686
0.000143167
0.000138049
0.000143498
0.000143363
0.000140918
0.000144
0.000137866
0.000143316
0.000143244
0.000143891
0.000143046
0.000142311
0.000142305
0.000143236
0.000140279
0.000140751
0.000143734
0.000141629
0.000142476
0.000143361
0.000140974
0.000141886
0.000143477
0.000140907
0.000141554
0.000143953
0.000142735
0.000143377
0.000142074
0.000141507
0.00014226
0.000143407
0.000148202
0.000141191
0.000139954
0.000148113
0.000148741
0.000141856
0.000149245
0.000142332
0.000141736
0.0001465
0.000147057
0.000140941
0.000148533
0.000147908
0.000143087
0.000148375
0.000141018
0.0001477
0.00014781
0.000148753
0.00014834
0.000151662
0.000148597
0.000150843
0.000152721
0.000151426
0.000149862
0.000149856
0.000147443
0.000149148
0.00015374
0.000153367
0.000149777
0.000150459
0.000152024
0.000149175
0.000151265
0.00014948
0.000152782
0.000152223
0.000150566
0.000152733
0.000153694
0.000154797
0.00015259
0.000157148
0.000157747
0.000150274
0.000154726
0.00015574
0.000153526
0.000157159
0.00015555
0.000152785
0.000158065
0.000156767
0.000151365
0.000152791
0.000153104
0.000155624
0.000156569
0.000153871
0.000153421
0.000154438
0.000156719
0.000157917
0.000156637
0.000156814
0.000154832
0.000154096
0.000156637
0.000157189
0.000156555
0.000159146
0.000157835
0.000157873
0.000158586
0.000153719
0.000156044
0.00015756
0.000160156
0.000158456
0.000155076
0.000156064
0.000159904
0.000159963
0.000158265
0.00016553
0.000165354
0.000154674
0.000159659
0.000159745
0.000159129
0.000164831
0.000163646
0.000159295
0.000163933
0.000164398
0.00015597
0.00015851
0.000159107
0.00016244
0.00016453
0.000159663
0.000159852
0.000160578
0.00016557
0.000165785
0.000166091
0.000165738
0.000159845
0.000160779
0.000165065
0.000165931
0.000166953
0.000168763
0.000165786
0.000167661
0.000167432
0.000159819
0.000162153
0.000166231
0.000169337
0.00016756
0.00016104
0.000161487
0.000163882
0.000168253
0.000167714
0.000171097
0.000172273
0.000161627
0.000164094
0.000168107
0.000168493
0.000170793
0.000168464
0.000167675
0.000170807
0.000169391
0.000161967
0.000162063
0.000167343
0.000168024
0.00016916
0.000162907
0.000163925
0.000165894
0.000170992
0.00017226
0.000173916
0.000171855
0.000163979
0.000165355
0.00017163
0.000171118
0.000174358
0.000175572
0.000170752
0.000173861
0.000175927
0.000163228
0.000167194
0.000171065
0.000175947
0.000175985
0.000167281
0.000166546
0.00016815
0.000175557
0.000174122
0.000177395
0.000179928
0.000166554
0.000170152
0.000174892
0.000175605
0.000176842
0.000176567
0.000176898
0.000180174
0.00017709
0.000167188
0.000167959
0.000176419
0.000176801
0.00017636
0.00016759
0.000168437
0.000171946
0.000177988
0.000180304
0.000181865
0.00017971
0.00017012
0.000169029
0.000178343
0.000178609
0.000183257
0.000182915
0.000177367
0.000179083
0.00018127
0.000168876
0.000171744
0.000177594
0.000182504
0.000182506
0.000171495
0.000172324
0.000172649
0.00018281
0.000179841
0.000183886
0.000183817
0.000169121
0.000173331
0.000184048
0.000183163
0.000183996
0.000182289
0.00018177
0.000184171
0.000182537
0.000171679
0.00017077
0.000183107
0.000181792
0.000182585
0.000171574
0.000172567
0.000174375
0.000184501
0.000184993
0.000186586
0.000187387
0.000173901
0.000175344
0.000183715
0.000182188
0.000185787
0.000187705
0.000183929
0.000188391
0.000189146
0.000171124
0.000176138
0.000182492
0.00018835
0.000188389
0.000176546
0.000174647
0.000177335
0.00018707
0.000187976
0.000190179
0.000190811
0.000175415
0.000177227
0.000186656
0.000188586
0.000190256
0.000189738
0.000190077
0.00018943
0.000190358
0.000176432
0.000176759
0.000189801
0.000190097
0.000190605
0.000176903
0.000178024
0.000179579
0.0001916
0.000191878
0.000193755
0.000193089
0.000177774
0.000178827
0.000191815
0.000190928
0.000194415
0.000193871
0.000190133
0.000193352
0.000192836
0.000176952
0.000179169
0.000190463
0.000193272
0.000192992
0.000179037
0.000179439
0.000179131
0.000193764
0.000192993
0.000193228
0.000192371
0.000178652
0.000178491
0.000194485
0.000194049
0.000193924
0.000193773
0.000193736
0.000192925
0.000194042
0.000179124
0.000179288
0.000193782
0.000193628
0.000194016
0.00017936
0.000179867
0.000184957
0.00019457
0.000194145
0.000200431
0.000200453
0.000179434
0.000185008
0.000194228
0.000194647
0.000199801
0.000200023
0.000194628
0.000200066
0.00020014
0.000180058
0.000184972
0.000194646
0.000200288
0.00020022
0.000184866
0.000185022
0.000182015
0.000201235
0.000201288
0.000200525
0.000200864
0.000185124
0.000182542
0.000200627
0.000200767
0.000200185
0.00020007
0.000201026
0.000200966
0.000201152
0.00018503
0.000181965
0.000201106
0.000200497
0.000201235
0.000182822
0.000181321
0.000179322
0.000199123
0.00019947
0.000196415
0.00019673
0.000181863
0.00017957
0.000198877
0.000198751
0.000196211
0.000196068
0.000199771
0.000197015
0.000196942
0.000181262
0.000179271
0.000199824
0.0001964
0.00019697
0.000179343
0.000180012
0.000191171
0.000196075
0.000196288
0.000207686
0.000207376
0.000180109
0.000190935
0.00019597
0.000195879
0.000207936
0.000208075
0.000196329
0.000207437
0.000206845
0.000179993
0.000191325
0.000196346
0.000207753
0.000206809
0.000190458
0.000193125
0.000201906
0.000212183
0.000211921
0.000221652
0.000221542
0.000192921
0.00020187
0.00021241
0.00021256
0.000221839
0.000222012
0.000211571
0.000221678
0.000221595
0.000193292
0.000202142
0.000211547
0.000221932
0.00022159
0.000201875
0.000202364
0.00019448
0.000223877
0.000223805
0.000220822
0.000220989
0.000202342
0.000194632
0.000224068
0.000224243
0.00022084
0.000220791
0.000223947
0.000221188
0.000221659
0.000202601
0.000194528
0.000223941
0.000221106
0.000221714
0.000195044
0.000190987
0.000175853
0.000213823
0.000213949
0.000196419
0.000196446
0.00019111
0.000175851
0.000213818
0.00021374
0.000196372
0.000196234
0.000214444
0.000196414
0.000196508
0.000190994
0.00017573
0.000214504
0.000196336
0.000196565
0.000175912
0.000174427
0.00017001
0.000192602
0.00019261
0.000186387
0.00018637
0.000174413
0.000169951
0.000192556
0.000192415
0.000186361
0.000186232
0.000192571
0.00018627
0.000186173
0.000174296
0.000169887
0.000192619
0.00018621
0.000186195
0.000169788
0.000170012
0.000176923
0.000185057
0.000185035
0.000191715
0.000191711
0.000169951
0.00017692
0.000185038
0.000184915
0.000191765
0.000191759
0.000184815
0.000191693
0.000191475
0.000169908
0.000176922
0.000184831
0.000191668
0.000191444
0.000176743
0.000178883
0.000193887
0.000196274
0.000196288
0.000213482
0.000213529
0.000178894
0.000193939
0.00019632
0.000196327
0.000213523
0.000213553
0.000196117
0.000213572
0.0002135
0.000178895
0.000193932
0.000196095
0.000213547
0.000213493
0.000193894
0.000196755
0.000214645
0.000220178
0.000220229
0.000239958
0.000240003
0.000196809
0.000214695
0.000220217
0.000220247
0.000239991
0.00024
0.000220232
0.000240067
0.000240067
0.000196801
0.000214677
0.000220229
0.000240042
0.000240074
0.000214717
0.000216885
0.000227287
0.000245234
0.000245273
0.000256308
0.000256339
0.000216934
0.000227319
0.000245263
0.000245261
0.000256334
0.00025631
0.000245346
0.000256403
0.000256418
0.000216914
0.000227289
0.000245356
0.000256378
0.000256434
0.000227357
0.000225937
0.000210768
0.000258996
0.000259022
0.000243692
0.000243673
0.000225957
0.000210769
0.00025902
0.000258988
0.0002437
0.000243629
0.000259099
0.000243721
0.000243708
0.000225926
0.000210747
0.000259117
0.000243712
0.000243747
0.000210784
0.000206422
0.000188869
0.000235572
0.000235552
0.000214227
0.000214207
0.000206423
0.000188869
0.000235582
0.000235519
0.000214238
0.000214194
0.000235583
0.00021425
0.000214228
0.000206404
0.00018886
0.00023562
0.000214246
0.000214258
0.000188873
0.000186299
0.000177788
0.000208747
0.000208729
0.000198343
0.000198332
0.0001863
0.000177792
0.000208758
0.000208719
0.000198352
0.000198324
0.000208747
0.000198365
0.000198343
0.00018629
0.000177783
0.000208774
0.000198357
0.00019836
0.000177789
0.000177221
0.000177549
0.000196794
0.000196785
0.000196127
0.000196122
0.000177226
0.000177557
0.000196802
0.000196777
0.000196134
0.000196112
0.000196795
0.000196149
0.000196128
0.000177217
0.000177546
0.000196809
0.00019614
0.000196139
0.000177549
0.000178315
0.000184019
0.000197139
0.000197138
0.000205029
0.000205031
0.000178324
0.00018403
0.000197147
0.000197127
0.000205042
0.000205018
0.000197141
0.000205061
0.000205034
0.000178313
0.000184017
0.000197151
0.000205049
0.000205046
0.00018402
0.000184733
0.000187334
0.00020708
0.000207082
0.000210568
0.000210567
0.000184743
0.000187344
0.000207095
0.000207068
0.000210586
0.000210554
0.000207086
0.000210602
0.000210575
0.000184732
0.00018733
0.0002071
0.000210592
0.000210591
0.000187336
0.000187439
0.000187984
0.000211114
0.000211113
0.000211742
0.000211739
0.000187447
0.000187993
0.000211132
0.000211099
0.00021176
0.000211727
0.000211121
0.000211776
0.000211748
0.000187435
0.000187979
0.000211138
0.000211765
0.000211766
0.000187985
0.000187871
0.000188012
0.000211763
0.000211761
0.000211689
0.000211685
0.00018788
0.000188021
0.000211782
0.000211749
0.000211707
0.000211674
0.00021177
0.000211723
0.000211695
0.000187867
0.000188008
0.000211788
0.000211713
0.000211713
0.000188014
0.000187868
0.000187974
0.000211664
0.00021166
0.000211542
0.000211538
0.000187877
0.000187982
0.000211682
0.000211648
0.00021156
0.000211526
0.00021167
0.000211576
0.000211549
0.000187864
0.000187969
0.000211688
0.000211566
0.000211567
0.000187976
0.000187823
0.000187887
0.000211523
0.000211519
0.000211384
0.00021138
0.000187831
0.000187896
0.000211541
0.000211507
0.000211403
0.000211368
0.000211529
0.000211419
0.000211391
0.000187819
0.000187881
0.000211548
0.000211408
0.000211409
0.000187888
0.000187736
0.000187775
0.000211358
0.000211354
0.000211272
0.000211268
0.000187744
0.000187783
0.000211377
0.000211342
0.000211291
0.000211256
0.000211365
0.000211307
0.000211279
0.000187731
0.000187768
0.000211382
0.000211296
0.000211297
0.000187775
0.000187627
0.000187815
0.000211275
0.000211271
0.000211311
0.000211308
0.000187635
0.000187825
0.000211293
0.000211259
0.00021133
0.000211297
0.000211282
0.000211346
0.000211319
0.000187622
0.00018781
0.000211299
0.000211337
0.000211337
0.000187817
0.000187686
0.000189248
0.000211194
0.000211191
0.000213739
0.000213739
0.000187696
0.000189254
0.000211213
0.000211177
0.000213757
0.000213731
0.000211199
0.000213768
0.000213747
0.000187682
0.000189244
0.000211218
0.00021376
0.000213764
0.000189252
0.000191165
0.000212569
0.000212569
0.00019117
0.000212584
0.000212561
0.000236676
0.000236672
0.00023668
0.000212576
0.000191161
0.000212591
2.36099e-05
2.76381e-06
1.41345e-05
1.40905e-05
5.74004e-07
2.32501e-06
1.60536e-06
6.84007e-06
6.71136e-07
2.41988e-06
6.58627e-06
4.22795e-06
2.25983e-06
1.84386e-06
1.73178e-06
1.01922e-06
1.34789e-05
9.76911e-07
1.5262e-05
1.06914e-05
1.29127e-05
1.09049e-06
1.34963e-05
9.42216e-07
1.52675e-05
5.96355e-06
6.03625e-06
5.85309e-06
5.92152e-06
5.88374e-06
5.96069e-06
5.77281e-06
6.66735e-07
4.91923e-07
2.81987e-06
2.14078e-06
6.28489e-07
6.0902e-07
2.78787e-06
1.09836e-05
1.32006e-05
7.14327e-07
2.72397e-06
5.14032e-07
2.19545e-06
7.05949e-07
2.68324e-06
6.04732e-07
1.49308e-06
1.49876e-06
2.24804e-06
1.71736e-06
1.71104e-06
1.25206e-06
1.85247e-05
1.15073e-06
2.09393e-05
1.69925e-05
1.91659e-05
1.34367e-06
1.85366e-05
1.25231e-06
2.09532e-05
5.90636e-06
5.98432e-06
5.79483e-06
6.00988e-06
5.98568e-06
6.06362e-06