/*--------------------------------*- C++ -*----------------------------------*\
| =========                 |                                                 |
| \\      /  F ield         | OpenFOAM: The Open Source CFD Toolbox           |
|  \\    /   O peration     | Version:  v1906                                 |
|   \\  /    A nd           | Web:      www.OpenFOAM.com                      |
|    \\/     M anipulation  |                                                 |
\*---------------------------------------------------------------------------*/
FoamFile
{
    version     2.0;
    format      ascii;
    class       volScalarField;
    location    "337.5";
    object      p;
}
// * * * * * * * * * * * * * * * * * * * * * * * * * * * * * * * * * * * * * //

dimensions      [0 2 -2 0 0 0 0];


internalField   nonuniform List<scalar> 
171728
(
0.00351849
0.00351743
0.00351745
0.00351815
0.00348296
0.00348157
0.00348153
0.00348438
0.00344474
0.0034428
0.00344283
0.00344509
0.00340059
0.00339893
0.00339892
0.00340114
0.00335234
0.00335088
0.00335087
0.0033532
0.0033035
0.00330211
0.00330212
0.00330451
0.00325546
0.00325421
0.00325421
0.00325657
0.00320821
0.00320712
0.00320712
0.00320947
0.00316179
0.0031608
0.00316081
0.00316319
0.00311646
0.00311558
0.0031156
0.00311798
0.00307207
0.00307129
0.0030713
0.00307368
0.00302837
0.00302774
0.00302775
0.0030301
0.00298526
0.00298475
0.00298465
0.00298708
0.00294256
0.00294217
0.00294209
0.00294453
0.0029002
0.00289991
0.00289989
0.00290211
0.00285815
0.00285776
0.00285791
0.00286002
0.00281644
0.00281618
0.00281623
0.00281849
0.00277508
0.00277495
0.00277493
0.00277704
0.00273409
0.002734
0.0027339
0.00273599
0.00269345
0.00269333
0.00269321
0.00269527
0.00265313
0.002653
0.00265305
0.00265493
0.00261314
0.00261301
0.00261315
0.00261488
0.0025734
0.00257348
0.00257335
0.00257499
0.00253396
0.00253415
0.00253396
0.00253566
0.00249473
0.00249483
0.00249478
0.00249675
0.00245574
0.00245589
0.00245594
0.00245754
0.00241705
0.00241734
0.00241735
0.00241921
0.00237848
0.00237883
0.00237875
0.00238065
0.00234015
0.00234047
0.0023405
0.00234246
0.00230202
0.00230236
0.00230239
0.00230432
0.00226405
0.00226445
0.0022644
0.00226642
0.00222623
0.00222671
0.0022267
0.00222859
0.00218854
0.00218901
0.00218899
0.00219093
0.00215106
0.00215149
0.0021515
0.00215335
0.00211362
0.00211417
0.00211415
0.002116
0.00207643
0.00207676
0.00207678
0.00207877
0.00203925
0.00203967
0.00203968
0.00204149
0.00200233
0.00200266
0.00200269
0.00200467
0.00196547
0.00196576
0.00196572
0.00196762
0.00192886
0.001929
0.00192915
0.00193112
0.0018922
0.00189243
0.00189222
0.00189428
0.00185576
0.00185595
0.00185595
0.00185803
0.00181944
0.00181933
0.00181955
0.00182142
0.00178341
0.00178364
0.00178331
0.00178562
0.00174725
0.00174718
0.00174725
0.00174912
0.0017115
0.00171109
0.00171134
0.00171336
0.0016754
0.00167553
0.00167549
0.00167769
0.00164004
0.00163975
0.00163963
0.00164166
0.00160433
0.00160428
0.00160427
0.00160628
0.00156891
0.00156848
0.00156858
0.00157067
0.00153365
0.00153346
0.00153333
0.00153537
0.00149829
0.00149825
0.00149827
0.00150029
0.00146359
0.00146293
0.00146295
0.00146499
0.00142834
0.00142803
0.00142794
0.00142999
0.0013932
0.00139325
0.0013932
0.00139527
0.0013584
0.00135793
0.00135797
0.00135995
0.00132366
0.00132342
0.00132332
0.00132526
0.00128867
0.00128842
0.00128853
0.00129048
0.0012543
0.00125401
0.00125389
0.00125586
0.00121945
0.00121924
0.00121927
0.00122115
0.00118504
0.00118474
0.00118469
0.00118666
0.00115041
0.00115026
0.00115036
0.00115222
0.00111598
0.00111576
0.00111567
0.00111757
0.00108164
0.00108124
0.00108139
0.0010833
0.00104696
0.00104706
0.0010468
0.00104877
0.00101262
0.00101239
0.00101263
0.00101448
0.000978326
0.000978023
0.000977973
0.000979826
0.000943949
0.000943795
0.000943811
0.00094577
0.000909411
0.000909362
0.000909333
0.000911239
0.000875377
0.000875252
0.000875202
0.000877138
0.000840634
0.000840391
0.0008404
0.000842324
0.000806463
0.00080642
0.000806465
0.000808338
0.000773046
0.000773059
0.000773075
0.000774999
0.00073874
0.000738243
0.000738201
0.000740056
0.000702992
0.000702721
0.000702712
0.000704631
0.000666608
0.000667148
0.000667175
0.000669376
0.000631954
0.000632429
0.000632438
0.000634613
0.00059815
0.000598259
0.000598264
0.000600187
0.00056648
0.000565811
0.000565807
0.000567389
0.000535081
0.000534459
0.000534457
0.000536016
0.000500236
0.000499785
0.000499786
0.000501635
0.000461091
0.000460809
0.000460808
0.000462985
0.000419867
0.000420751
0.000420751
0.000423362
0.000380841
0.000381524
0.000381523
0.000384009
0.000344371
0.000344459
0.00034446
0.000346546
0.000310125
0.000309893
0.000309892
0.000311645
0.000279351
0.000279149
0.000279149
0.000280755
0.000248675
0.000248647
0.000248647
0.000250409
0.000215287
0.000215273
0.000215273
0.000217213
0.000179972
0.000179957
0.000179957
0.000181989
0.00014384
0.000143823
0.000143823
0.000145887
0.000107392
0.000107375
0.000107375
0.000109438
7.08472e-05
7.08194e-05
7.08183e-05
7.28506e-05
3.50213e-05
3.44497e-05
3.44465e-05
3.63319e-05
6.23754e-06
7.15503e-06
7.15384e-06
5.43958e-06
0.00352289
0.00352049
0.00352043
0.00352286
0.00352047
0.00352049
0.00352687
0.00352683
0.00352686
0.00352686
0.00352042
0.00352055
0.00352293
0.0035205
0.00352044
0.0035229
0.00351811
0.00348909
0.00351744
0.00351744
0.00349088
0.00349091
0.00351813
0.00348911
0.00351743
0.00351748
0.00349091
0.00349094
0.00351757
0.00349093
0.00349095
0.00351814
0.00348904
0.00351745
0.00349094
0.00349093
0.00348909
0.00348438
0.00345058
0.00348159
0.0034816
0.0034528
0.00345281
0.00348439
0.00345059
0.00348158
0.00348159
0.0034528
0.0034528
0.00348154
0.00345281
0.00345283
0.00348435
0.00345055
0.00348156
0.00345277
0.0034528
0.00345058
0.0034451
0.00340732
0.00344281
0.00344284
0.00341037
0.00341041
0.00344511
0.00340733
0.00344279
0.00344283
0.00341037
0.00341037
0.0034428
0.0034104
0.0034104
0.00344508
0.00340732
0.00344281
0.00341036
0.00341039
0.00340732
0.00340114
0.00335969
0.00339893
0.00339893
0.00336304
0.00336307
0.00340115
0.00335969
0.00339893
0.00339892
0.00336303
0.00336302
0.00339893
0.00336305
0.00336305
0.00340114
0.00335968
0.00339891
0.00336301
0.00336305
0.00335968
0.00335322
0.00331094
0.00335088
0.00335087
0.00331427
0.00331425
0.00335321
0.00331094
0.00335088
0.00335088
0.00331426
0.00331426
0.00335089
0.00331426
0.00331425
0.00335321
0.00331094
0.00335085
0.00331425
0.00331426
0.00331094
0.0033045
0.00326286
0.0033021
0.00330211
0.00326609
0.00326609
0.00330451
0.00326286
0.00330211
0.00330211
0.00326611
0.00326611
0.00330213
0.00326612
0.00326613
0.0033045
0.00326287
0.00330212
0.00326611
0.00326611
0.00326287
0.00325656
0.00321566
0.00325421
0.0032542
0.00321883
0.00321879
0.00325657
0.00321565
0.00325421
0.00325421
0.00321884
0.00321881
0.00325422
0.00321883
0.00321882
0.00325657
0.00321565
0.00325423
0.00321881
0.00321882
0.00321566
0.00320947
0.00316925
0.00320711
0.0032071
0.00317229
0.00317226
0.00320947
0.00316924
0.0032071
0.00320712
0.00317229
0.00317229
0.00320713
0.00317227
0.00317232
0.00320947
0.00316925
0.0032071
0.0031723
0.00317229
0.00316926
0.00316319
0.00312388
0.00316081
0.00316081
0.0031268
0.00312678
0.0031632
0.00312387
0.0031608
0.0031608
0.0031268
0.00312681
0.00316078
0.00312679
0.0031268
0.0031632
0.00312388
0.00316081
0.00312679
0.0031268
0.00312387
0.00311798
0.00307946
0.0031156
0.0031156
0.00308232
0.00308231
0.00311798
0.00307946
0.00311558
0.00311559
0.00308233
0.00308232
0.00311556
0.00308232
0.00308229
0.00311797
0.00307947
0.0031156
0.00308232
0.0030823
0.00307946
0.00307368
0.00303577
0.00307131
0.00307128
0.00303854
0.00303855
0.00307367
0.00303579
0.00307129
0.00307129
0.00303854
0.00303856
0.00307133
0.00303854
0.00303854
0.00307368
0.00303579
0.00307131
0.00303855
0.00303856
0.00303578
0.00303009
0.00299268
0.00302771
0.00302772
0.00299541
0.00299546
0.0030301
0.00299271
0.00302772
0.00302774
0.00299541
0.00299546
0.00302774
0.00299545
0.00299539
0.00303011
0.00299268
0.00302772
0.00299546
0.00299539
0.00299266
0.00298707
0.00295
0.00298472
0.00298474
0.00295269
0.00295272
0.00298708
0.00295002
0.00298471
0.00298468
0.00295269
0.00295269
0.00298476
0.00295272
0.00295276
0.00298706
0.00294997
0.00298476
0.00295266
0.00295278
0.00295007
0.00294448
0.00290767
0.00294216
0.00294217
0.00291035
0.00291034
0.00294449
0.00290765
0.00294218
0.00294207
0.00291034
0.00291027
0.00294213
0.00291033
0.00291036
0.00294443
0.00290762
0.00294217
0.00291027
0.00291036
0.0029076
0.00290223
0.0028656
0.00289995
0.00289992
0.0028683
0.00286829
0.0029022
0.00286553
0.00289993
0.00289989
0.00286829
0.00286831
0.00289974
0.00286828
0.00286836
0.00290219
0.00286561
0.00289976
0.00286836
0.00286833
0.00286549
0.00286022
0.00282383
0.00285792
0.00285776
0.00282653
0.00282665
0.00286012
0.00282385
0.00285792
0.00285791
0.00282653
0.00282661
0.00285774
0.00282664
0.00282665
0.00286022
0.00282389
0.00285772
0.00282664
0.00282667
0.0028239
0.00281851
0.0027824
0.00281626
0.00281617
0.00278513
0.00278518
0.00281844
0.00278241
0.00281622
0.00281628
0.00278512
0.00278519
0.00281617
0.00278519
0.00278522
0.00281852
0.00278243
0.00281618
0.00278519
0.00278521
0.00278235
0.00277713
0.00274134
0.00277498
0.00277495
0.00274408
0.00274414
0.00277711
0.00274137
0.00277497
0.00277502
0.00274409
0.0027441
0.00277486
0.00274414
0.00274418
0.00277715
0.00274137
0.00277485
0.0027441
0.00274416
0.00274123
0.00273612
0.00270057
0.00273399
0.00273401
0.0027034
0.00270339
0.00273613
0.00270063
0.00273401
0.00273399
0.00270339
0.00270335
0.0027339
0.00270339
0.00270353
0.00273614
0.00270058
0.0027339
0.00270342
0.0027035
0.00270043
0.00269536
0.00266003
0.00269329
0.00269334
0.0026632
0.00266309
0.0026954
0.00266013
0.00269329
0.00269332
0.00266319
0.00266312
0.00269329
0.0026631
0.00266319
0.00269534
0.0026601
0.00269329
0.00266324
0.0026632
0.00265998
0.0026549
0.00261993
0.00265297
0.002653
0.00262322
0.00262307
0.00265495
0.00261997
0.00265296
0.00265305
0.00262322
0.00262308
0.00265314
0.00262305
0.00262304
0.00265495
0.00261998
0.00265315
0.00262307
0.00262303
0.0026199
0.00261489
0.00258014
0.00261311
0.002613
0.00258334
0.00258343
0.00261483
0.00258016
0.0026131
0.00261309
0.00258334
0.00258332
0.00261321
0.00258342
0.00258321
0.00261492
0.00258016
0.00261322
0.00258326
0.00258317
0.00258011
0.00257508
0.00254074
0.00257334
0.00257347
0.00254393
0.00254383
0.00257518
0.00254063
0.00257333
0.00257335
0.00254393
0.00254385
0.00257336
0.00254383
0.00254393
0.00257509
0.00254074
0.00257334
0.0025438
0.0025439
0.00254073
0.00253576
0.00250153
0.00253404
0.00253415
0.00250466
0.00250454
0.00253581
0.00250145
0.00253403
0.002534
0.00250467
0.00250464
0.00253398
0.00250454
0.0025047
0.00253572
0.00250163
0.00253394
0.00250469
0.00250471
0.00250157
0.0024966
0.00246258
0.0024949
0.00249483
0.00246564
0.00246565
0.00249645
0.00246273
0.00249491
0.00249481
0.00246563
0.0024657
0.00249495
0.00246566
0.00246563
0.0024966
0.00246266
0.00249497
0.00246575
0.00246563
0.00246257
0.00245768
0.00242393
0.00245597
0.00245589
0.00242689
0.00242703
0.00245768
0.00242427
0.00245597
0.00245594
0.00242688
0.00242693
0.00245588
0.00242703
0.00242699
0.0024577
0.00242404
0.00245588
0.002427
0.002427
0.00242411
0.00241895
0.00238597
0.00241724
0.00241733
0.00238848
0.00238838
0.00241934
0.00238534
0.00241726
0.00241737
0.00238845
0.00238833
0.0024173
0.00238836
0.00238839
0.00241924
0.0023855
0.0024173
0.00238834
0.0023884
0.00238556
0.00238101
0.00234695
0.0023788
0.00237883
0.00235007
0.00234999
0.00238053
0.00234744
0.00237878
0.00237877
0.00235007
0.00235003
0.0023788
0.00235
0.00235005
0.00238049
0.00234753
0.00237879
0.00235007
0.00235006
0.0023474
0.00234215
0.00230942
0.00234054
0.00234047
0.00231188
0.00231189
0.00234248
0.00230925
0.00234054
0.00234048
0.00231189
0.00231187
0.00234048
0.00231189
0.00231191
0.00234264
0.00230915
0.00234048
0.00231188
0.0023119
0.00230923
0.00230444
0.00227129
0.0023024
0.00230236
0.00227388
0.00227392
0.00230437
0.00227122
0.0023024
0.00230239
0.0022739
0.00227391
0.00230239
0.00227392
0.00227392
0.00230426
0.00227138
0.00230238
0.0022739
0.00227393
0.00227131
0.00226636
0.00223355
0.00226443
0.00226445
0.00223613
0.00223614
0.0022663
0.00223351
0.00226444
0.00226442
0.00223613
0.00223613
0.00226447
0.00223614
0.00223608
0.00226645
0.00223341
0.00226446
0.00223616
0.00223608
0.00223349
0.00222869
0.00219571
0.00222665
0.00222671
0.00219841
0.00219839
0.00222861
0.00219584
0.00222667
0.0022267
0.00219841
0.00219838
0.00222667
0.00219839
0.00219843
0.00222856
0.00219583
0.00222667
0.00219839
0.00219843
0.00219583
0.0021908
0.00215836
0.00218902
0.00218901
0.0021609
0.00216084
0.0021909
0.00215833
0.00218903
0.00218898
0.0021609
0.00216088
0.00218901
0.00216084
0.00216086
0.00219088
0.00215827
0.00218901
0.00216087
0.00216087
0.00215822
0.00215345
0.00212086
0.00215151
0.00215149
0.00212342
0.00212352
0.00215346
0.00212083
0.00215153
0.00215151
0.00212341
0.00212345
0.00215147
0.0021235
0.00212346
0.0021534
0.00212088
0.00215149
0.00212347
0.00212346
0.00212091
0.002116
0.00208359
0.00211412
0.00211418
0.00208616
0.00208608
0.00211594
0.00208363
0.00211409
0.00211413
0.00208616
0.00208612
0.00211417
0.00208611
0.00208615
0.00211599
0.00208357
0.00211416
0.00208609
0.00208613
0.00208365
0.00207867
0.00204638
0.00207682
0.00207675
0.00204888
0.00204894
0.00207875
0.00204641
0.00207683
0.00207679
0.00204891
0.00204892
0.0020768
0.00204893
0.00204891
0.00207869
0.00204645
0.00207681
0.00204894
0.00204893
0.00204635
0.00204153
0.00200951
0.00203961
0.00203967
0.00201193
0.0020119
0.00204155
0.00200946
0.00203963
0.00203969
0.00201191
0.00201195
0.00203964
0.0020119
0.0020119
0.00204159
0.00200942
0.00203963
0.00201194
0.00201191
0.00200954
0.0020046
0.00197262
0.0020027
0.00200266
0.00197503
0.00197498
0.00200457
0.00197252
0.0020027
0.00200266
0.00197504
0.00197492
0.0020027
0.00197498
0.001975
0.00200452
0.00197257
0.00200273
0.00197491
0.00197501
0.00197248
0.0019678
0.00193576
0.00196582
0.00196576
0.00193818
0.00193821
0.00196769
0.00193588
0.00196583
0.00196575
0.00193818
0.00193834
0.00196575
0.00193821
0.00193817
0.00196775
0.00193602
0.00196572
0.00193835
0.00193818
0.00193594
0.00193088
0.00189919
0.00192897
0.00192899
0.00190151
0.00190151
0.001931
0.00189919
0.00192897
0.00192914
0.0019015
0.00190141
0.00192903
0.00190151
0.00190155
0.00193111
0.00189899
0.00192907
0.00190141
0.00190157
0.00189912
0.0018944
0.00186286
0.0018924
0.00189245
0.00186508
0.0018652
0.0018944
0.00186292
0.00189239
0.00189222
0.00186505
0.001865
0.00189238
0.00186519
0.00186506
0.00189419
0.00186283
0.00189237
0.00186498
0.00186503
0.00186287
0.00185799
0.00182635
0.00185596
0.00185596
0.00182854
0.00182834
0.00185799
0.00182609
0.00185595
0.00185599
0.00182861
0.0018287
0.00185593
0.00182835
0.00182847
0.00185804
0.00182639
0.00185592
0.00182868
0.00182851
0.0018262
0.00182155
0.0017901
0.00181948
0.00181932
0.00179235
0.00179255
0.00182133
0.00179044
0.00181954
0.0018195
0.0017923
0.00179231
0.00181943
0.00179258
0.00179257
0.0018215
0.00179018
0.00181944
0.00179231
0.00179255
0.00179044
0.00178532
0.00175426
0.0017833
0.0017836
0.00175638
0.00175638
0.00178566
0.00175414
0.00178323
0.00178338
0.00175635
0.00175627
0.00178354
0.00175636
0.00175616
0.00178542
0.00175406
0.00178351
0.00175629
0.00175615
0.00175392
0.00174946
0.00171802
0.00174742
0.00174724
0.00172021
0.00171998
0.00174924
0.00171784
0.00174743
0.00174721
0.00172029
0.00172032
0.00174711
0.00171995
0.00172023
0.00174925
0.0017182
0.00174709
0.00172028
0.00172025
0.00171812
0.00171322
0.00168231
0.00171113
0.00171106
0.00168436
0.0016844
0.00171312
0.00168242
0.00171117
0.00171138
0.00168434
0.00168441
0.00171128
0.00168449
0.00168451
0.00171344
0.00168232
0.00171131
0.00168447
0.00168451
0.00168247
0.00167756
0.00164653
0.00167549
0.0016755
0.00164872
0.00164879
0.00167765
0.00164658
0.00167546
0.00167543
0.00164869
0.00164857
0.00167561
0.00164866
0.00164861
0.00167752
0.00164645
0.00167558
0.00164856
0.0016486
0.00164643
0.00164176
0.001611
0.00163972
0.00163983
0.00161299
0.00161311
0.00164182
0.00161105
0.00163972
0.00163967
0.00161304
0.0016131
0.00163959
0.0016132
0.00161301
0.00164171
0.00161106
0.00163961
0.0016131
0.001613
0.00161101
0.00160625
0.00157545
0.00160415
0.00160421
0.00157759
0.0015774
0.00160628
0.00157532
0.00160418
0.00160426
0.00157754
0.00157754
0.00160422
0.00157736
0.00157758
0.00160631
0.00157542
0.00160418
0.00157753
0.00157758
0.00157544
0.00157071
0.00154009
0.0015687
0.00156853
0.00154209
0.0015422
0.00157058
0.00154016
0.00156866
0.00156859
0.00154212
0.00154206
0.0015686
0.00154221
0.00154205
0.00157065
0.00154006
0.00156868
0.00154207
0.0015421
0.00154007
0.00153538
0.00150502
0.00153333
0.00153345
0.00150708
0.0015071
0.00153545
0.00150506
0.00153334
0.00153332
0.00150701
0.00150705
0.0015333
0.00150709
0.00150709
0.00153536
0.00150504
0.00153332
0.00150706
0.00150699
0.00150502
0.0015003
0.00146969
0.0014983
0.00149827
0.00147173
0.00147167
0.00150031
0.00146962
0.00149825
0.00149827
0.00147183
0.00147186
0.0014983
0.0014717
0.00147178
0.00150032
0.00146973
0.00149823
0.00147185
0.00147186
0.00146972
0.00146496
0.00143472
0.0014629
0.00146291
0.00143676
0.00143676
0.00146489
0.00143471
0.00146299
0.00146297
0.00143675
0.00143671
0.00146295
0.00143673
0.00143673
0.001465
0.00143466
0.00146303
0.00143668
0.00143673
0.00143469
0.00143004
0.00139995
0.00142808
0.00142805
0.001402
0.00140199
0.00143002
0.00140002
0.00142804
0.001428
0.00140193
0.00140192
0.00142802
0.00140193
0.00140195
0.00142995
0.00139994
0.001428
0.00140192
0.00140192
0.00139997
0.00139521
0.00136469
0.00139321
0.0013933
0.00136668
0.00136664
0.00139534
0.00136462
0.00139313
0.00139316
0.00136678
0.0013668
0.00139324
0.00136673
0.00136669
0.00139523
0.0013647
0.0013932
0.00136674
0.00136677
0.00136468
0.00135998
0.00132989
0.001358
0.00135786
0.00133203
0.00133208
0.00135989
0.00133
0.00135811
0.00135804
0.00133193
0.00133188
0.00135793
0.00133207
0.00133199
0.00135998
0.00132988
0.00135799
0.00133191
0.00133194
0.00132992
0.00132517
0.00129517
0.00132327
0.00132341
0.00129715
0.00129711
0.00132533
0.0012951
0.00132317
0.00132324
0.0012972
0.00129732
0.00132336
0.00129711
0.00129722
0.0013252
0.00129524
0.00132331
0.00129733
0.00129728
0.00129519
0.00129053
0.00126061
0.00128856
0.00128847
0.00126274
0.00126272
0.00129042
0.00126062
0.00128861
0.0012886
0.0012627
0.00126252
0.00128849
0.00126263
0.00126256
0.00129054
0.0012605
0.00128854
0.00126245
0.00126253
0.00126051
0.00125586
0.00122577
0.00125391
0.00125401
0.00122778
0.00122776
0.00125593
0.00122579
0.00125392
0.0012539
0.00122783
0.00122796
0.00125393
0.00122789
0.0012279
0.00125584
0.00122587
0.00125393
0.00122804
0.00122792
0.00122585
0.00122112
0.0011914
0.00121925
0.00121921
0.00119349
0.00119352
0.00122114
0.00119139
0.00121923
0.00121923
0.00119341
0.00119328
0.00121924
0.00119339
0.00119337
0.00122115
0.00119125
0.00121921
0.00119322
0.00119333
0.00119131
0.0011867
0.00115678
0.00118476
0.0011848
0.00115878
0.0011587
0.00118668
0.00115677
0.00118477
0.00118473
0.00115886
0.001159
0.00118475
0.00115883
0.00115893
0.00118662
0.00115697
0.00118476
0.00115908
0.00115899
0.00115691
0.00115211
0.00112236
0.00115021
0.00115017
0.00112444
0.00112457
0.00115213
0.00112241
0.00115022
0.00115029
0.00112435
0.00112431
0.00115031
0.00112446
0.00112431
0.00115224
0.00112225
0.0011503
0.00112425
0.00112426
0.00112224
0.00111769
0.00108793
0.00111577
0.00111587
0.00108993
0.00108978
0.00111769
0.00108778
0.00111577
0.00111574
0.00109003
0.00109004
0.00111567
0.00108978
0.00108995
0.00111761
0.00108798
0.00111568
0.00109003
0.00109004
0.00108796
0.00108326
0.00105337
0.00108135
0.00108121
0.00105547
0.0010556
0.00108314
0.00105364
0.00108139
0.00108138
0.00105534
0.00105535
0.00108138
0.00105567
0.00105551
0.00108329
0.00105333
0.00108142
0.00105539
0.00105538
0.00105344
0.0010487
0.00101908
0.00104684
0.00104701
0.00102103
0.00102104
0.00104896
0.001019
0.00104673
0.00104676
0.0010211
0.00102118
0.0010469
0.00102104
0.00102113
0.00104866
0.00101923
0.00104678
0.00102121
0.00102121
0.00101915
0.00101442
0.000984696
0.00101245
0.00101242
0.00098672
0.00098666
0.00101431
0.000984595
0.00101255
0.00101262
0.000986732
0.000986661
0.00101252
0.000986577
0.000986549
0.00101458
0.000984577
0.00101265
0.000986574
0.000986569
0.000984503
0.000980027
0.000950302
0.000978151
0.000978089
0.000952357
0.000952301
0.000979941
0.000950341
0.000978133
0.000978065
0.000952348
0.000952344
0.00097794
0.000952399
0.000952385
0.000979905
0.000950353
0.000977922
0.000952371
0.000952341
0.000950401
0.000945607
0.000915867
0.000943708
0.000943682
0.000917875
0.000917937
0.000945666
0.000915929
0.000943701
0.000943733
0.000917831
0.000917873
0.000943858
0.000917923
0.00091794
0.000945688
0.000915883
0.000943822
0.000917914
0.000917939
0.000915914
0.00091123
0.000881866
0.000909347
0.000909414
0.000883842
0.000883867
0.000911281
0.000881855
0.000909299
0.000909324
0.000883842
0.000883815
0.000909335
0.000883831
0.000883766
0.000911226
0.00088182
0.000909339
0.000883773
0.000883767
0.000881795
0.000877177
0.000847039
0.000875235
0.000875241
0.000849086
0.000849079
0.00087716
0.000847039
0.000875272
0.000875236
0.000849115
0.000849108
0.00087522
0.000849111
0.000849119
0.000877144
0.00084706
0.00087522
0.000849113
0.000849123
0.000847072
0.000842285
0.000812928
0.000840368
0.000840365
0.000814811
0.000814792
0.000842289
0.000812889
0.000840393
0.000840394
0.00081482
0.000814835
0.000840402
0.000814771
0.000814769
0.000842305
0.000812925
0.000840407
0.000814812
0.000814775
0.000812875
0.000808394
0.000779605
0.000806469
0.000806446
0.000781512
0.000781481
0.000808352
0.000779595
0.000806476
0.000806491
0.000781506
0.00078151
0.000806418
0.000781478
0.000781477
0.000808389
0.000779607
0.000806424
0.000781512
0.000781474
0.000779599
0.000774978
0.000744786
0.000773071
0.000773053
0.000746995
0.000747033
0.000774985
0.000744837
0.000773055
0.000773054
0.000746962
0.000746957
0.000773067
0.000747046
0.000747065
0.000774983
0.000744787
0.000773064
0.000746999
0.000747062
0.000744852
0.000740001
0.000709532
0.000738197
0.000738239
0.000711703
0.000711724
0.000740044
0.000709534
0.000738181
0.000738181
0.000711711
0.000711713
0.000738253
0.000711715
0.000711713
0.000740002
0.000709526
0.000738253
0.000711698
0.000711716
0.000709531
0.000704634
0.000674164
0.00070272
0.000702732
0.000675888
0.000675872
0.000704632
0.000674142
0.000702727
0.000702726
0.000675895
0.000675894
0.00070272
0.000675865
0.000675849
0.000704625
0.000674162
0.000702723
0.000675883
0.000675852
0.000674127
0.000669408
0.000639344
0.000667171
0.000667148
0.0006411
0.000641088
0.000669385
0.000639339
0.000667175
0.000667173
0.000641105
0.000641105
0.000667134
0.000641094
0.000641095
0.000669408
0.000639351
0.000667138
0.000641106
0.000641096
0.000639343
0.00063461
0.000604771
0.000632428
0.00063242
0.000606663
0.000606661
0.000634607
0.000604778
0.000632433
0.000632432
0.000606663
0.000606668
0.000632431
0.00060667
0.000606678
0.000634618
0.000604781
0.000632432
0.000606675
0.000606678
0.000604789
0.000600167
0.000571669
0.000598253
0.000598254
0.000573705
0.000573711
0.000600174
0.000571671
0.00059825
0.000598257
0.000573701
0.000573707
0.00059827
0.000573708
0.000573719
0.000600176
0.000571668
0.00059827
0.000573704
0.000573718
0.000571673
0.000567388
0.000540383
0.000565811
0.000565815
0.000542468
0.000542471
0.000567388
0.000540382
0.000565808
0.000565811
0.00054247
0.000542467
0.000565816
0.000542464
0.000542459
0.000567386
0.000540379
0.000565815
0.000542463
0.00054246
0.000540373
0.000536024
0.000506618
0.00053446
0.000534462
0.000508894
0.000508891
0.000536023
0.000506615
0.00053446
0.000534458
0.000508894
0.00050889
0.000534449
0.000508889
0.000508885
0.000536021
0.000506613
0.000534453
0.000508889
0.000508885
0.00050661
0.000501642
0.000468448
0.000499789
0.000499787
0.000470861
0.000470859
0.000501639
0.000468448
0.000499789
0.000499786
0.00047086
0.000470859
0.00049978
0.000470858
0.000470856
0.000501638
0.000468446
0.000499783
0.000470856
0.000470856
0.000468446
0.000462987
0.000428811
0.000460811
0.000460809
0.000430737
0.000430737
0.000462986
0.000428812
0.00046081
0.00046081
0.000430736
0.000430739
0.000460807
0.000430738
0.000430739
0.000462986
0.000428812
0.000460807
0.000430737
0.000430738
0.000428812
0.00042336
0.000389255
0.00042075
0.00042075
0.000391144
0.000391144
0.000423361
0.000389256
0.00042075
0.000420751
0.000391143
0.000391144
0.000420752
0.000391145
0.000391145
0.000423361
0.000389256
0.000420751
0.000391144
0.000391145
0.000389257
0.000384007
0.0003515
0.000381523
0.000381523
0.000353528
0.000353528
0.000384008
0.000351501
0.000381522
0.000381523
0.000353527
0.000353528
0.000381524
0.000353529
0.000353528
0.000384008
0.000351502
0.000381524
0.000353529
0.000353528
0.000351501
0.000346545
0.000316183
0.000344458
0.000344458
0.000318241
0.00031824
0.000346546
0.000316183
0.000344458
0.000344459
0.000318244
0.000318243
0.000344458
0.000318245
0.000318243
0.000346548
0.000316183
0.000344459
0.000318242
0.000318245
0.000316183
0.000311644
0.000284762
0.000309892
0.000309892
0.000286559
0.000286558
0.000311645
0.000284761
0.000309893
0.000309893
0.000286559
0.000286559
0.000309892
0.000286559
0.000286559
0.000311645
0.000284761
0.000309893
0.000286559
0.000286559
0.000284761
0.000280756
0.000254706
0.000279149
0.000279149
0.000256523
0.000256525
0.000280755
0.000254707
0.000279149
0.00027915
0.000256524
0.000256524
0.000279149
0.000256524
0.000256524
0.000280756
0.000254706
0.000279149
0.000256525
0.000256525
0.000254705
0.000250409
0.000221893
0.000248645
0.000248647
0.000223856
0.000223856
0.00025041
0.000221894
0.000248645
0.000248646
0.000223856
0.000223856
0.000248646
0.000223856
0.000223856
0.000250411
0.000221893
0.000248647
0.000223855
0.000223856
0.000221894
0.000217213
0.000186855
0.000215273
0.000215273
0.000188891
0.00018889
0.000217213
0.000186855
0.000215273
0.000215274
0.00018889
0.000188891
0.000215274
0.00018889
0.00018889
0.000217214
0.000186854
0.000215273
0.00018889
0.00018889
0.000186854
0.000181989
0.000150831
0.000179957
0.000179957
0.000152894
0.000152894
0.000181989
0.000150831
0.000179957
0.000179957
0.000152894
0.000152894
0.000179957
0.000152894
0.000152894
0.000181989
0.000150831
0.000179957
0.000152894
0.000152894
0.000150831
0.000145886
0.000114427
0.000143823
0.000143823
0.000116495
0.000116495
0.000145886
0.000114427
0.000143823
0.000143823
0.000116495
0.000116495
0.000143824
0.000116495
0.000116495
0.000145887
0.000114426
0.000143823
0.000116495
0.000116495
0.000114426
0.000109438
7.78834e-05
0.000107375
0.000107375
7.99522e-05
7.99521e-05
0.000109438
7.78843e-05
0.000107375
0.000107375
7.99518e-05
7.99513e-05
0.000107375
7.9952e-05
7.99516e-05
0.000109437
7.78825e-05
0.000107375
7.99515e-05
7.99516e-05
7.78828e-05
7.28514e-05
4.13428e-05
7.08196e-05
7.08196e-05
4.34103e-05
4.34112e-05
7.28512e-05
4.13444e-05
7.08188e-05
7.08182e-05
4.34086e-05
4.34078e-05
7.08189e-05
4.34099e-05
4.34077e-05
7.28509e-05
4.13403e-05
7.08186e-05
4.34072e-05
4.34064e-05
4.13402e-05
3.63353e-05
8.6737e-06
3.44506e-05
3.44513e-05
1.16731e-05
1.16728e-05
3.63358e-05
8.67393e-06
3.44492e-05
3.44473e-05
1.16741e-05
1.16677e-05
3.44467e-05
1.16731e-05
1.16661e-05
3.63325e-05
8.67021e-06
3.4446e-05
1.1671e-05
1.16713e-05
8.6691e-06
5.44259e-06
7.15414e-06
7.15399e-06
5.44368e-06
7.15455e-06
7.15043e-06
6.23717e-06
6.23681e-06
6.23589e-06
7.14962e-06
5.4412e-06
7.1532e-06
0.00352995
0.00353253
0.00353125
0.00353128
0.00355883
0.00353239
0.00356198
0.00353266
0.00355888
0.00353249
0.00353268
0.00356197
0.00354342
0.00356464
0.00356513
0.00350251
0.00351618
0.00352011
0.00349486
0.00349286
0.00349826
0.00350261
0.00351627
0.00352017
0.00349478
0.0035185
0.00351851
0.00351854
0.003492
0.003492
0.003492
0.003492
0.00350228
0.00351377
0.00351908
0.00350974
0.00352121
0.00349935
0.00351004
0.00349303
0.00349834
0.00350226
0.0035191
0.00351396
0.00350978
0.00352121
0.00351005
0.00349924
0.00352
0.00351988
0.00350702
0.00349924
0.00349926
0.00347502
0.00348923
0.00348908
0.00347301
0.00348647
0.00347213
0.00347506
0.00348926
0.00348923
0.00347304
0.00348297
0.00348298
0.00348298
0.00345479
0.0034548
0.00345479
0.0034548
0.00347288
0.00348778
0.00348145
0.00347206
0.0034862
0.00347336
0.00347203
0.00348659
0.00347205
0.00347288
0.00348146
0.00348776
0.00347204
0.0034862
0.003472
0.00347335
0.00348954
0.00348952
0.00347055
0.00347369
0.00347368
0.00343273
0.00344732
0.00344819
0.00343135
0.00344618
0.00343047
0.00343277
0.0034473
0.00344832
0.00343131
0.00344475
0.00344476
0.00344475
0.00341217
0.00341217
0.00341217
0.00341217
0.00343143
0.00344691
0.00344275
0.00343235
0.00344587
0.00343187
0.00343236
0.00344617
0.00343042
0.00343143
0.00344276
0.00344688
0.0034323
0.00344586
0.00343234
0.00343188
0.00344763
0.0034476
0.00342966
0.00343167
0.00343168
0.00338628
0.00340272
0.00340416
0.00338482
0.00340199
0.00338436
0.0033863
0.0034027
0.00340425
0.00338484
0.00340059
0.00340059
0.00340059
0.00336456
0.00336456
0.00336456
0.00336455
0.00338548
0.0034026
0.00339889
0.00338713
0.00340198
0.00338555
0.00338711
0.00340198
0.00338431
0.00338547
0.00339887
0.00340256
0.00338708
0.00340197
0.00338709
0.00338554
0.00340277
0.0034028
0.00338383
0.00338501
0.00338502
0.00333727
0.00335439
0.00335571
0.00333602
0.00335399
0.0033357
0.00333718
0.0033544
0.00335578
0.00333599
0.00335234
0.00335234
0.00335233
0.00331566
0.00331566
0.00331567
0.00331566
0.00333683
0.0033544
0.0033509
0.00333863
0.00335405
0.00333671
0.00333864
0.00335397
0.00333572
0.00333686
0.00335088
0.00335439
0.00333864
0.00335402
0.00333863
0.00333673
0.00335441
0.00335442
0.00333529
0.00333615
0.00333615
0.00328823
0.00330542
0.00330642
0.00328733
0.00330518
0.00328707
0.00328815
0.00330544
0.00330648
0.00328732
0.0033035
0.00330351
0.0033035
0.00326738
0.00326739
0.00326739
0.00326739
0.00328815
0.00330546
0.00330215
0.00329006
0.00330522
0.00328798
0.00329008